
                                 *****************
                                 * O   R   C   A *
                                 *****************

                                            #,                                       
                                            ###                                      
                                            ####                                     
                                            #####                                    
                                            ######                                   
                                           ########,                                 
                                     ,,################,,,,,                         
                               ,,#################################,,                 
                          ,,##########################################,,             
                       ,#########################################, ''#####,          
                    ,#############################################,,   '####,        
                  ,##################################################,,,,####,       
                ,###########''''           ''''###############################       
              ,#####''   ,,,,##########,,,,          '''####'''          '####       
            ,##' ,,,,###########################,,,                        '##       
           ' ,,###''''                  '''############,,,                           
         ,,##''                                '''############,,,,        ,,,,,,###''
      ,#''                                            '''#######################'''  
     '                                                          ''''####''''         
             ,#######,   #######,   ,#######,      ##                                
            ,#'     '#,  ##    ##  ,#'     '#,    #''#        ,####,   ,####,        
            ##       ##  ##   ,#'  ##            #'  '#       #'       #'  '#        
            ##       ##  #######   ##           ,######,      #####,   #    #        
            '#,     ,#'  ##    ##  '#,     ,#' ,#      #,     #,   #   #,  ,#        
             '#######'   ##     ##  '#######'  #'      '#     '####' # '####'        



                #########################################################
                #                        -***-                          #
                #          Department of theory and spectroscopy        #
                #                                                       #
                #                      Frank Neese                      #
                #                                                       #
                #     Directorship, Architecture, Infrastructure        #
                #                    SHARK, DRIVERS                     #
                #        Core code/Algorithms in most modules           #
                #                                                       #
                #        Max Planck Institute fuer Kohlenforschung      #
                #                Kaiser Wilhelm Platz 1                 #
                #                 D-45470 Muelheim/Ruhr                 #
                #                      Germany                          #
                #                                                       #
                #                  All rights reserved                  #
                #                        -***-                          #
                #########################################################


                         Program Version 6.0.0  -   RELEASE  -


 With contributions from (in alphabetic order):
   Daniel Aravena         : Magnetic Suceptibility
   Michael Atanasov       : Ab Initio Ligand Field Theory (pilot matlab implementation)
   Alexander A. Auer      : GIAO ZORA, VPT2 properties, NMR spectrum
   Ute Becker             : All parallelization in ORCA, NUMFREQ, NUMCALC
   Giovanni Bistoni       : ED, misc. LED, open-shell LED, HFLD
   Martin Brehm           : Molecular dynamics
   Dmytro Bykov           : pre 5.0 version of the SCF Hessian
   Marcos Casanova-Páez   : Triplet and SCS-CIS(D). UHF-(DLPNO)-IP/EA/STEOM-CCSD. UHF-CVS-IP/STEOM-CCSD
   Vijay G. Chilkuri      : MRCI spin determinant printing, contributions to CSF-ICE
   Pauline Colinet        : FMM embedding
   Dipayan Datta          : RHF DLPNO-CCSD density
   Achintya Kumar Dutta   : EOM-CC, STEOM-CC
   Nicolas Foglia         : Exact transition moments, OPA infrastructure, MCD improvements
   Dmitry Ganyushin       : Spin-Orbit,Spin-Spin,Magnetic field MRCI
   Miquel Garcia          : C-PCM and meta-GGA Hessian, CCSD/C-PCM, Gaussian charge scheme
   Tiago L. C. Gouveia    : GS-ROHF, GS-ROCIS
   Yang Guo               : DLPNO-NEVPT2, F12-NEVPT2, CIM, IAO-localization
   Andreas Hansen         : Spin unrestricted coupled pair/coupled cluster methods
   Ingolf Harden          : AUTO-CI MPn and infrastructure 
   Benjamin Helmich-Paris : MC-RPA, TRAH-(SCF,CASSCF), AVAS, COSX integrals, SCF dyn. polar.
   Lee Huntington         : MR-EOM, pCC
   Robert Izsak           : Overlap fitted RIJCOSX, COSX-SCS-MP3, EOM
   Riya Kayal             : Wick's Theorem for AUTO-CI, AUTO-CI UHF-CCSDT
   Emily Kempfer          : AUTO-CI, RHF CISDT and CCSDT
   Christian Kollmar      : KDIIS, OOCD, Brueckner-CCSD(T), CCSD density, CASPT2, CASPT2-K, improved NEVPT2
   Axel Koslowski         : Symmetry handling
   Simone Kossmann        : Meta GGA functionals, TD-DFT gradient, OOMP2, (MP2 Hessian; deprecated post 5.0)
   Lucas Lang             : DCDCAS
   Marvin Lechner         : AUTO-CI (C++ implementation), FIC-MRCC
   Spencer Leger          : CASSCF response
   Dagmar Lenk            : GEPOL surface, SMD, ORCA-2-JSON
   Dimitrios Liakos       : Extrapolation schemes; Compound Job, initial MDCI parallelization
   Dimitrios Manganas     : Further ROCIS development; embedding schemes. LFT, Crystal Embedding
   Dimitrios Pantazis     : SARC Basis sets
   Anastasios Papadopoulos: AUTO-CI, single reference methods and gradients
   Taras Petrenko         : pre 6.0 DFT Hessian and TD-DFT gradient, (ASA, deprecated), ECA, 1-Electron XAS/XES, NRVS
   Peter Pinski           : DLPNO-MP2, DLPNO-MP2 Gradient
   Christoph Reimann      : Effective Core Potentials
   Marius Retegan         : Local ZFS, SOC
   Christoph Riplinger    : Optimizer, TS searches, QM/MM, DLPNO-CCSD(T), (RO)-DLPNO pert. Triples
   Michael Roemelt        : Original ROCIS implementation
   Masaaki Saitow         : Open-shell DLPNO-CCSD energy and density
   Barbara Sandhoefer     : DKH picture change effects
   Kantharuban Sivalingam : CASSCF convergence/infrastructure, NEVPT2 and variants, FIC-MRCI
   Bernardo de Souza      : ESD, SOC TD-DFT
   Georgi Stoychev        : AutoAux, RI-MP2 NMR, DLPNO-MP2 response, X2C
   Van Anh Tran           : RI-MP2 g-tensors
   Willem Van den Heuvel  : Paramagnetic NMR
   Zikuan Wang            : NOTCH, Electric field optimization 
   Frank Wennmohs         : Technical directorship and infrastructure
   Hang Xu                : AUTO-CI-Response properties 


 We gratefully acknowledge several colleagues who have allowed us to
 interface, adapt or use parts of their codes:
   Stefan Grimme, W. Hujo, H. Kruse, P. Pracht,  : VdW corrections, initial TS optimization,
                  C. Bannwarth, S. Ehlert,         DFT functionals, gCP, sTDA/sTD-DF
                  L. Wittmann, M. Mueller
   Ed Valeev, F. Pavosevic, A. Kumar             : LibInt (2-el integral package), F12 methods
   Garnet Chan, S. Sharma, J. Yang, R. Olivares  : DMRG
   Ulf Ekstrom                                   : XCFun DFT Library
   Mihaly Kallay                                 : mrcc  (arbitrary order and MRCC methods)
   Frank Weinhold                                : gennbo (NPA and NBO analysis)
   Simon Mueller                                 : openCOSMO-RS
   Christopher J. Cramer and Donald G. Truhlar   : smd solvation model
   Lars Goerigk                                  : TD-DFT with DH, B97 family of functionals
   V. Asgeirsson, H. Jonsson                     : NEB implementation
   FAccTs GmbH                                   : IRC, NEB, NEB-TS, DLPNO-Multilevel, CI-OPT
                                                   MM, QMMM, 2- and 3-layer-ONIOM, Crystal-QMMM,
                                                   LR-CPCM, SF, NACMEs, symmetry and pop. for TD-DFT,
                                                   nearIR, NL-DFT gradient (VV10), updates on ESD,
                                                   ML-optimized integration grids, MBIS, APM,
                                                   GOAT, DOCKER, SOLVATOR, interface openCOSMO-RS
   S Lehtola, MJT Oliveira, MAL Marques          : LibXC Library
   Liviu Ungur et al                             : ANISO software


 Your calculation uses the libint2 library for the computation of 2-el integrals
 For citations please refer to: http://libint.valeyev.net

 Your ORCA version has been built with support for libXC version: 6.2.2
 For citations please refer to: https://libxc.gitlab.io

 This ORCA versions uses:
   CBLAS   interface :  Fast vector & matrix operations
   LAPACKE interface :  Fast linear algebra routines
   SCALAPACK package :  Parallel linear algebra routines
   Shared memory     :  Shared parallel matrices


NOTE: MaxCore=1024 MB was set to SCF,MP2,MDCI,CIPSI,MRCI and CIS
      => If you want to overwrite this, your respective input block should be placed after the MaxCore statement
================================================================================

----- Orbital basis set information -----
Your calculation utilizes the basis: 6-31G(d)
   H-He, Li-Ne : W. J. Hehre, R. Ditchfield and J.A. Pople, J. Chem. Phys. 56, 2257 (1972).
                 Note: He and Ne are unpublished basis sets taken from the Gaussian program.
                 Note: Li and B from J. D. Dill and J. A. Pople, J. Chem. Phys. 62, 2921 (1975).
   Na - Ar     : M. M. Francl, W. J. Pietro, W. J. Hehre, J. S. Binkley, M. S. Gordon, 
                 D. J. DeFrees and J. A. Pople, J. Chem. Phys. 77, 3654 (1982).
   K - Zn      : V. A. Rassolov, J. A. Pople, M. A. Ratner, and T. L. Windus, J. Chem. Phys. 109, 1223 (1998).

================================================================================
                                        WARNINGS
                       Please study these warnings very carefully!
================================================================================


WARNING: Geometry Optimization
  ===> : Switching off AutoStart
         For restart on a previous wavefunction, please use MOREAD

================================================================================
                                       INPUT FILE
================================================================================
NAME = system.inp
|  1> # avogadro generated ORCA file
|  2> # CH5P | Frequencies | HF/6-31G(d)
|  3> # 
|  4> ! Opt Freq HF 6-31G(d) 
|  5> 
|  6> %maxcore 1024
|  7> 
|  8> %pal
|  9>    nprocs 1
| 10> end
| 11> 
| 12> %output
| 13>    print[p_mos] 1
| 14>    print[p_basis] 2
| 15> end
| 16> 
| 17> %plots
| 18>     Format Cube
| 19>     ElDens("electron-density.cube");
| 20>     MO("homo.cube",13,0);
| 21>     MO("lumo.cube",14,0);
| 22> end
| 23> 
| 24> * xyz 0 1
| 25>    P     -0.917200    0.000000    0.000000
| 26>    C      0.917200    0.000000    0.000000
| 27>    H      1.301800   -0.242000    0.994600
| 28>    H      1.299900    0.982900   -0.288200
| 29>    H      1.299900   -0.740600   -0.707600
| 30>    H     -1.100400    0.797600    1.154300
| 31>    H     -1.100500   -1.238700    0.659000
| 32> *
| 33> 
| 34> 
| 35> 
| 36>                          ****END OF INPUT****
================================================================================

                       *****************************
                       * Geometry Optimization Run *
                       *****************************

Geometry optimization settings:
Update method            Update   .... BFGS
Choice of coordinates    CoordSys .... (2022) Redundant Internals
Initial Hessian          InHess   .... Almloef's Model
Max. no of cycles        MaxIter  .... 50

Convergence Tolerances:
Energy Change            TolE     ....  5.0000e-06 Eh
Max. Gradient            TolMAXG  ....  3.0000e-04 Eh/bohr
RMS Gradient             TolRMSG  ....  1.0000e-04 Eh/bohr
Max. Displacement        TolMAXD  ....  4.0000e-03 bohr
RMS Displacement         TolRMSD  ....  2.0000e-03 bohr
Strict Convergence                .... False

------------------------------------------------------------------------------
                        ORCA OPTIMIZATION COORDINATE SETUP
------------------------------------------------------------------------------

The optimization will be done in redundant internal coordinates (2022)
Making redundant internal coordinates   ...  (2022 redundants) done
Evaluating the initial hessian          ...  (Almloef) done
Evaluating the coordinates              ...  done
Calculating the B-matrix                .... done
Calculating the G-matrix                .... done
Diagonalizing the G-matrix              .... done
The first mode is                       ....    5
The number of degrees of freedom        ....   15

    -----------------------------------------------------------------
                    Redundant Internal Coordinates


    -----------------------------------------------------------------
         Definition                    Initial Value    Approx d2E/dq
    -----------------------------------------------------------------
      1. B(C   1,P   0)                  1.8344         0.410413   
      2. B(H   2,C   1)                  1.0935         0.355519   
      3. B(H   3,C   1)                  1.0934         0.355578   
      4. B(H   4,C   1)                  1.0935         0.355557   
      5. B(H   5,P   0)                  1.4150         0.366818   
      6. B(H   6,P   0)                  1.4150         0.366760   
      7. A(C   1,P   0,H   5)           97.4391         0.381668   
      8. A(C   1,P   0,H   6)           97.4430         0.381657   
      9. A(H   5,P   0,H   6)           95.5523         0.343161   
     10. A(H   2,C   1,H   3)          108.3955         0.289681   
     11. A(H   3,C   1,H   4)          108.4074         0.289685   
     12. A(H   2,C   1,H   4)          108.3976         0.289678   
     13. A(P   0,C   1,H   4)          110.4868         0.349057   
     14. A(P   0,C   1,H   3)          110.4871         0.349060   
     15. A(P   0,C   1,H   2)          110.5925         0.349050   
     16. D(H   2,C   1,P   0,H   6)    -48.3115         0.003783   
     17. D(H   3,C   1,P   0,H   5)    -71.6981         0.003783   
     18. D(H   3,C   1,P   0,H   6)   -168.3285         0.003783   
     19. D(H   4,C   1,P   0,H   5)    168.3384         0.003783   
     20. D(H   2,C   1,P   0,H   5)     48.3189         0.003783   
    -----------------------------------------------------------------

Number of atoms                         .... 7
Number of degrees of freedom            .... 20


         *************************************************************
         *                GEOMETRY OPTIMIZATION CYCLE   1            *
         *************************************************************
---------------------------------
CARTESIAN COORDINATES (ANGSTROEM)
---------------------------------
  P     -0.917200    0.000000    0.000000
  C      0.917200    0.000000    0.000000
  H      1.301800   -0.242000    0.994600
  H      1.299900    0.982900   -0.288200
  H      1.299900   -0.740600   -0.707600
  H     -1.100400    0.797600    1.154300
  H     -1.100500   -1.238700    0.659000

----------------------------
CARTESIAN COORDINATES (A.U.)
----------------------------
  NO LB      ZA    FRAG     MASS         X           Y           Z
   0 P    15.0000    0    30.974   -1.733257    0.000000    0.000000
   1 C     6.0000    0    12.011    1.733257    0.000000    0.000000
   2 H     1.0000    0     1.008    2.460045   -0.457314    1.879522
   3 H     1.0000    0     1.008    2.456455    1.857412   -0.544619
   4 H     1.0000    0     1.008    2.456455   -1.399531   -1.337170
   5 H     1.0000    0     1.008   -2.079455    1.507246    2.181311
   6 H     1.0000    0     1.008   -2.079644   -2.340804    1.245330

--------------------------------
INTERNAL COORDINATES (ANGSTROEM)
--------------------------------
 P      0   0   0     0.000000000000     0.00000000     0.00000000
 C      1   0   0     1.834400000000     0.00000000     0.00000000
 H      2   1   0     1.093485399994   110.59251580     0.00000000
 H      2   1   3     1.093439957199   110.48709220   239.98299744
 H      2   1   3     1.093455719268   110.48678362   120.01950327
 H      1   2   3     1.414968724036    97.43913004    48.31888645
 H      1   2   3     1.415011512321    97.44298735   311.68852460

---------------------------
INTERNAL COORDINATES (A.U.)
---------------------------
 P      0   0   0     0.000000000000     0.00000000     0.00000000
 C      1   0   0     3.466513620065     0.00000000     0.00000000
 H      2   1   0     2.066387937430   110.59251580     0.00000000
 H      2   1   3     2.066302062993   110.48709220   239.98299744
 H      2   1   3     2.066331848986   110.48678362   120.01950327
 H      1   2   3     2.673903376492    97.43913004    48.31888645
 H      1   2   3     2.673984234632    97.44298735   311.68852460

---------------------
BASIS SET INFORMATION
---------------------
There are 3 groups of distinct atoms

 Group   1 Type P   : 16s10p1d contracted to 4s3p1d pattern {6631/631/1}
 Group   2 Type C   : 10s4p1d contracted to 3s2p1d pattern {631/31/1}
 Group   3 Type H   : 4s contracted to 2s pattern {31}

Atom   0P    basis set group =>   1
Atom   1C    basis set group =>   2
Atom   2H    basis set group =>   3
Atom   3H    basis set group =>   3
Atom   4H    basis set group =>   3
Atom   5H    basis set group =>   3
Atom   6H    basis set group =>   3

-------------------------
BASIS SET IN INPUT FORMAT
-------------------------

 # Basis set for element : H 
 NewGTO H 
 S 3 
   1      18.7311370000      0.0334945995
   2       2.8253937000      0.2347269467
   3       0.6401217000      0.8137573184
 S 1 
   1       0.1612778000      1.0000000000
  end;

 # Basis set for element : C 
 NewGTO C 
 S 6 
   1    3047.5249000000      0.0018347002
   2     457.3695100000      0.0140373012
   3     103.9486900000      0.0688426061
   4      29.2101550000      0.2321844206
   5       9.2866630000      0.4679413416
   6       3.1639270000      0.3623120322
 S 3 
   1       7.8682724000     -0.1193324086
   2       1.8812885000     -0.1608542116
   3       0.5442493000      1.1434564826
 P 3 
   1       7.8682724000      0.0689990956
   2       1.8812885000      0.3164239798
   3       0.5442493000      0.7443082524
 S 1 
   1       0.1687144000      1.0000000000
 P 1 
   1       0.1687144000      1.0000000000
 D 1 
   1       0.8000000000      1.0000000000
  end;

 # Basis set for element : P 
 NewGTO P 
 S 6 
   1   19413.3000000000      0.0018515989
   2    2909.4200000000      0.0142061917
   3     661.3640000000      0.0699994593
   4     185.7590000000      0.2400788603
   5      59.1943000000      0.4847617180
   6      20.0310000000      0.3351998050
 S 6 
   1     339.4780000000     -0.0027821701
   2      81.0101000000     -0.0360499014
   3      25.8780000000     -0.1166310044
   4       9.4522100000      0.0968328036
   5       3.6656600000      0.6144180231
   6       1.4674600000      0.4037980152
 P 6 
   1     339.4780000000      0.0045646162
   2      81.0101000000      0.0336935719
   3      25.8780000000      0.1397548834
   4       9.4522100000      0.3393617168
   5       3.6656600000      0.4509206237
   6       1.4674600000      0.2385858009
 S 3 
   1       2.1562300000     -0.2529241139
   2       0.7489970000      0.0328518447
   3       0.2831450000      1.0812547618
 P 3 
   1       2.1562300000     -0.0177653127
   2       0.7489970000      0.2740581964
   3       0.2831450000      0.7854215630
 S 1 
   1       0.0998317000      1.0000000000
 P 1 
   1       0.0998317000      1.0000000000
 D 1 
   1       0.5500000000      1.0000000000
  end;

------------------------------------------------------------------------------
                             ORCA STARTUP CALCULATIONS
------------------------------------------------------------------------------
------------------------------------------------------------------------------
                   ___                                                        
                  /   \      - P O W E R E D   B Y -                         
                 /     \                                                     
                 |  |  |   _    _      __       _____    __    __             
                 |  |  |  | |  | |    /  \     |  _  \  |  |  /  |          
                  \  \/   | |  | |   /    \    | | | |  |  | /  /          
                 / \  \   | |__| |  /  /\  \   | |_| |  |  |/  /          
                |  |  |   |  __  | /  /__\  \  |    /   |      \           
                |  |  |   | |  | | |   __   |  |    \   |  |\   \          
                \     /   | |  | | |  |  |  |  | |\  \  |  | \   \       
                 \___/    |_|  |_| |__|  |__|  |_| \__\ |__|  \__/        
                                                                              
                      - O R C A' S   B I G   F R I E N D -                    
                                      &                                       
                       - I N T E G R A L  F E E D E R -                       
                                                                              
 v1 FN, 2020, v2 2021, v3 2022-2024                                           
------------------------------------------------------------------------------


----------------------
SHARK INTEGRAL PACKAGE
----------------------

Number of atoms                             ...      7
Number of basis functions                   ...     42
Number of shells                            ...     24
Maximum angular momentum                    ...      2
Integral batch strategy                     ... SHARK/LIBINT Hybrid
RI-J (if used) integral strategy            ... SPLIT-RIJ (Revised 2003 algorithm where possible)
Printlevel                                  ...      1
Contraction scheme used                     ... SEGMENTED contraction
Prescreening option                         ... SCHWARTZ
   Thresh                                   ... 2.500e-11
   Tcut                                     ... 2.500e-12
   Tpresel                                  ... 2.500e-12 
Coulomb Range Separation                    ... NOT USED
Exchange Range Separation                   ... NOT USED
Multipole approximations                    ... NOT USED
Finite Nucleus Model                        ... NOT USED
CABS basis                                  ... NOT available
Auxiliary Coulomb fitting basis             ... NOT available
Auxiliary J/K fitting basis                 ... NOT available
Auxiliary Correlation fitting basis         ... NOT available
Auxiliary 'external' fitting basis          ... NOT available

Checking pre-screening integrals            ... done (  0.0 sec) Dimension = 24
Check shell pair data                       ... done (  0.0 sec)
Shell pair information
Shell pair cut-off parameter TPreSel        ...   2.5e-12
Total number of shell pairs                 ...       300
Shell pairs after pre-screening             ...       299
Total number of primitive shell pairs       ...      2040
Primitive shell pairs kept                  ...      1692
          la=0 lb=0:    152 shell pairs
          la=1 lb=0:     85 shell pairs
          la=1 lb=1:     15 shell pairs
          la=2 lb=0:     34 shell pairs
          la=2 lb=1:     10 shell pairs
          la=2 lb=2:      3 shell pairs

Calculating one electron integrals          ... done (  0.0 sec)
Calculating Nuclear repulsion               ... done (  0.0 sec) ENN=     60.464486167686 Eh

Diagonalization of the overlap matrix:
Smallest eigenvalue                        ... 9.920e-03
Time for diagonalization                   ...    0.000 sec
Threshold for overlap eigenvalues          ... 1.000e-07
Number of eigenvalues below threshold      ... 0
Time for construction of square roots      ...    0.000 sec
Total time needed                          ...    0.000 sec

-------------------
DFT GRID GENERATION
-------------------

General Integration Accuracy     IntAcc      ... 4.388
Radial Grid Type                 RadialGrid  ... OptM3 with GC (2021)
Angular Grid (max. ang.)         AngularGrid ... 4 (Lebedev-302)
Angular grid pruning method      GridPruning ... 4 (adaptive)
Weight generation scheme         WeightScheme... mBecke (2022)
Basis function cutoff            BFCut       ... 1.0000e-11
Integration weight cutoff        WCut        ... 1.0000e-14
Partially contracted basis set               ... off
Rotationally invariant grid construction     ... off
Angular grids for H and He will be reduced by one unit

Total number of grid points                  ...    29769
Total number of batches                      ...      469
Average number of points per batch           ...       63
Average number of grid points per atom       ...     4253
Initializing property integral containers    ... done (  0.0 sec)

SHARK setup successfully completed in   0.1 seconds

Maximum memory used throughout the entire STARTUP-calculation: 10.7 MB
-------------------------------------------------------------------------------
                                 ORCA GUESS
                   Start orbitals & Density for SCF / CASSCF
-------------------------------------------------------------------------------

------------
SCF SETTINGS
------------
Hamiltonian:
 Ab initio Hamiltonian  Method          .... Hartree-Fock(GTOs)


General Settings:
 Integral files         IntName         .... system
 Hartree-Fock type      HFTyp           .... RHF
 Total Charge           Charge          ....    0
 Multiplicity           Mult            ....    1
 Number of Electrons    NEL             ....   26
 Basis Dimension        Dim             ....   42
 Nuclear Repulsion      ENuc            ....     60.4644861677 Eh

Convergence Acceleration:
 AO-DIIS                CNVDIIS         .... on
   Start iteration      DIISMaxIt       ....    12
   Startup error        DIISStart       ....  0.200000
   # of expansion vecs  DIISMaxEq       ....     5
   Bias factor          DIISBfac        ....   1.050
   Max. coefficient     DIISMaxC        ....  10.000
 MO-DIIS                CNVKDIIS        .... off
 Trust-Rad. Augm. Hess. CNVTRAH         .... auto
   Auto Start mean grad. ratio tolernc. ....  1.125000
   Auto Start start iteration           ....    50
   Auto Start num. interpolation iter.  ....    10
   Max. Number of Micro iterations      ....    24
   Max. Number of Macro iterations      .... Maxiter - #DIIS iter
   Number of Davidson start vectors     ....     2
   Converg. threshold    (grad. norm)   ....   1.000e-05
   Grad. Scal. Fac. for Micro threshold ....   0.100
   Minimum threshold for Micro iter.    ....   1.000e-02
   NR start threshold (gradient norm)   ....   1.000e-04
   Initial trust radius                 ....   0.400
   Minimum AH scaling param. (alpha)    ....   1.000
   Maximum AH scaling param. (alpha)    .... 1000.000
   Quad. conv. algorithm                .... NR
   White noise on init. David. guess    .... on
   Maximum white noise                  ....   0.010
   Pseudo random numbers                .... off
   Inactive MOs                         .... canonical
   Orbital update algorithm             .... Taylor
   Preconditioner                       .... Diag
   Full preconditioner red. dimension   ....   250
 SOSCF                  CNVSOSCF        .... on
   Start iteration      SOSCFMaxIt      ....   150
   Startup grad/error   SOSCFStart      ....  0.003300
   Hessian update       SOSCFHessUp     .... L-BFGS
 Level Shifting         CNVShift        .... on
   Level shift para.    LevelShift      ....    0.2500
   Turn off err/grad.   ShiftErr        ....    0.0010
 Zerner damping         CNVZerner       .... off
 Static damping         CNVDamp         .... on
   Fraction old density DampFac         ....    0.7000
   Max. Damping (<1)    DampMax         ....    0.9800
   Min. Damping (>=0)   DampMin         ....    0.0000
   Turn off err/grad.   DampErr         ....    0.1000

SCF Procedure:
 Maximum # iterations   MaxIter         ....   125
 SCF integral mode      SCFMode         .... Direct
   Integral package                     .... SHARK and LIBINT hybrid scheme
 Reset frequency        DirectResetFreq ....    20
 Integral Threshold     Thresh          ....  2.500e-11 Eh
 Primitive CutOff       TCut            ....  2.500e-12 Eh

Convergence Tolerance:
 Convergence Check Mode ConvCheckMode   .... Total+1el-Energy
 Convergence forced     ConvForced      .... 0
 Energy Change          TolE            ....  1.000e-08 Eh
 1-El. energy change                    ....  1.000e-05 Eh
 Orbital Gradient       TolG            ....  1.000e-05
 Orbital Rotation angle TolX            ....  1.000e-05
 DIIS Error             TolErr          ....  5.000e-07

------------------------------
INITIAL GUESS: MODEL POTENTIAL
------------------------------
Loading Hartree-Fock densities                     ... done
Calculating cut-offs                               ... done
Initializing the effective Hamiltonian             ... done
Setting up the integral package (SHARK)            ... done
Starting the Coulomb interaction                   ... done (   0.0 sec)
Making the grid                                    ... done (   0.0 sec)
Mapping shells                                     ... done
Starting the XC term evaluation                    ... done (   0.0 sec)
Transforming the Hamiltonian                       ... done (   0.0 sec)
Diagonalizing the Hamiltonian                      ... done (   0.0 sec)
Back transforming the eigenvectors                 ... done (   0.0 sec)
Now organizing SCF variables                       ... done
                      ------------------
                      INITIAL GUESS DONE (   0.0 sec)
                      ------------------
             **** ENERGY FILE WAS UPDATED (system.en.tmp) ****
Finished Guess after   0.0 sec
Maximum memory used throughout the entire GUESS-calculation: 4.6 MB

-------------------------------------------------------------------------------------------
                                      ORCA LEAN-SCF
                              memory conserving SCF solver
-------------------------------------------------------------------------------------------

----------------------------------------D-I-I-S--------------------------------------------
Iteration    Energy (Eh)           Delta-E    RMSDP     MaxDP     DIISErr   Damp  Time(sec)
-------------------------------------------------------------------------------------------
               ***  Starting incremental Fock matrix formation  ***
    1    -381.3776856048374952     0.00e+00  5.30e-03  5.71e-02  2.15e-01  0.700   0.0
    2    -381.4154883710010040    -3.78e-02  4.26e-03  4.26e-02  1.38e-01  0.700   0.0
                               ***Turning on AO-DIIS***
    3    -381.4381815062743613    -2.27e-02  2.49e-03  2.81e-02  7.93e-02  0.700   0.0
    4    -381.4524110761354905    -1.42e-02  5.63e-03  6.61e-02  5.29e-02  0.000   0.0
    5    -381.4835688418065160    -3.12e-02  5.57e-04  4.95e-03  3.50e-03  0.000   0.0
                              *** Initializing SOSCF ***
---------------------------------------S-O-S-C-F--------------------------------------
Iteration    Energy (Eh)           Delta-E    RMSDP     MaxDP     MaxGrad    Time(sec)
--------------------------------------------------------------------------------------
    6    -381.4836634338832368    -9.46e-05  3.04e-04  2.11e-03  1.19e-03     0.0
               *** Restarting incremental Fock matrix formation ***
    7    -381.4836836548017232    -2.02e-05  1.29e-04  9.46e-04  4.68e-04     0.0
    8    -381.4836863344832523    -2.68e-06  7.45e-05  5.07e-04  1.79e-04     0.0
    9    -381.4836867847915300    -4.50e-07  3.56e-06  2.85e-05  1.34e-05     0.0
   10    -381.4836867872157882    -2.42e-09  1.44e-06  1.30e-05  5.37e-06     0.0
                 **** Energy Check signals convergence ****

               *****************************************************
               *                     SUCCESS                       *
               *           SCF CONVERGED AFTER  10 CYCLES          *
               *****************************************************

             **** ENERGY FILE WAS UPDATED (system.en.tmp) ****

----------------
TOTAL SCF ENERGY
----------------

Total Energy       :       -381.48368678721579 Eh          -10380.69886 eV

Components:
Nuclear Repulsion  :         60.46448616768550 Eh            1645.32232 eV
Electronic Energy  :       -441.94817295490128 Eh          -12026.02118 eV
One Electron Energy:       -645.85770930167712 Eh          -17574.68175 eV
Two Electron Energy:        203.90953634677584 Eh            5548.66057 eV

Virial components:
Potential Energy   :       -763.14026424642657 Eh          -20766.10232 eV
Kinetic Energy     :        381.65657745921072 Eh           10385.40346 eV
Virial Ratio       :          1.99954699936486

---------------
SCF CONVERGENCE
---------------

  Last Energy change         ...    2.4243e-09  Tolerance :   1.0000e-08
  Last MAX-Density change    ...    1.2981e-05  Tolerance :   1.0000e-07
  Last RMS-Density change    ...    1.4364e-06  Tolerance :   5.0000e-09
  Last DIIS Error            ...    1.1886e-03  Tolerance :   5.0000e-07
  Last Orbital Gradient      ...    5.3733e-06  Tolerance :   1.0000e-05
  Last Orbital Rotation      ...    5.5100e-06  Tolerance :   1.0000e-05


----------------
ORBITAL ENERGIES
----------------

  NO   OCC          E(Eh)            E(eV) 
   0   2.0000     -79.919965     -2174.7328 
   1   2.0000     -11.226136      -305.4787 
   2   2.0000      -7.477450      -203.4718 
   3   2.0000      -5.371039      -146.1534 
   4   2.0000      -5.370720      -146.1447 
   5   2.0000      -5.368951      -146.0966 
   6   2.0000      -0.983966       -26.7751 
   7   2.0000      -0.794843       -21.6288 
   8   2.0000      -0.587594       -15.9892 
   9   2.0000      -0.575963       -15.6727 
  10   2.0000      -0.497386       -13.5346 
  11   2.0000      -0.488739       -13.2993 
  12   2.0000      -0.356567        -9.7027 
  13   0.0000       0.168155         4.5757 
  14   0.0000       0.185955         5.0601 
  15   0.0000       0.283097         7.7035 
  16   0.0000       0.285261         7.7623 
  17   0.0000       0.293772         7.9939 
  18   0.0000       0.303931         8.2704 
  19   0.0000       0.467466        12.7204 
  20   0.0000       0.482918        13.1409 
  21   0.0000       0.526889        14.3374 
  22   0.0000       0.579869        15.7790 
  23   0.0000       0.710162        19.3245 
*Only the first 10 virtual orbitals were printed.
------------------
MOLECULAR ORBITALS (RHF, ROHF)
------------------
                      0         1         2         3         4         5   
                 -79.91996 -11.22614  -7.47745  -5.37104  -5.37072  -5.36895
                   2.00000   2.00000   2.00000   2.00000   2.00000   2.00000
                  --------  --------  --------  --------  --------  --------
  0P   1s        -0.996841  0.000003  0.276172  0.000000 -0.000247 -0.001954
  0P   2s        -0.011812  0.000023 -1.031054 -0.000000  0.000898  0.007485
  0P   1pz       -0.000076  0.000002 -0.005234  0.235135 -0.617437 -0.743235
  0P   1px       -0.000085  0.000051 -0.003381 -0.000150  0.764389 -0.635628
  0P   1py        0.000018 -0.000001  0.001273  0.965906  0.150424  0.180830
  0P   3s         0.004070  0.000020 -0.015476  0.000000 -0.000355 -0.002445
  0P   2pz        0.000097  0.000003 -0.001007  0.004850 -0.012531 -0.013868
  0P   2px        0.000288 -0.000773 -0.000901 -0.000003  0.016522 -0.012616
  0P   2py       -0.000024 -0.000001  0.000245  0.019923  0.003053  0.003374
  0P   4s        -0.003565 -0.004287  0.007037 -0.000000  0.002997  0.000466
  0P   3pz       -0.000778 -0.000922  0.001695 -0.001220  0.003839  0.003178
  0P   3px       -0.000391 -0.001741  0.000996  0.000001 -0.003104  0.002631
  0P   3py        0.000189  0.000224 -0.000412 -0.005012 -0.000935 -0.000773
  0P   1dz2      -0.000033  0.000007  0.000105  0.000416 -0.000857 -0.000109
  0P   1dxz       0.000000  0.000012  0.000165  0.000082  0.000168 -0.000599
  0P   1dyz      -0.000006 -0.000013 -0.000049  0.000929  0.000123  0.000147
  0P   1dx2y2     0.000080  0.000039  0.000009  0.000240  0.001009 -0.000380
  0P   1dxy      -0.000000 -0.000003 -0.000040  0.000336 -0.000041  0.000146
  1C   1s         0.000037 -0.996216  0.000109  0.000000 -0.000132  0.000140
  1C   2s         0.000192 -0.025605 -0.000361 -0.000000  0.000943 -0.000714
  1C   1pz       -0.000009  0.000014  0.000030  0.000027 -0.000006 -0.000080
  1C   1px        0.000159  0.000181  0.000040 -0.000000  0.000023  0.000084
  1C   1py        0.000002 -0.000003 -0.000007  0.000110  0.000001  0.000019
  1C   3s        -0.000508  0.016442  0.000593  0.000001 -0.003730  0.002362
  1C   2pz        0.000099  0.000158 -0.000212 -0.000281  0.000287  0.000802
  1C   2px       -0.000236 -0.000716  0.000617 -0.000000  0.001319 -0.000592
  1C   2py       -0.000024 -0.000038  0.000052 -0.001156 -0.000070 -0.000195
  1C   1dz2       0.000138 -0.000077 -0.000037  0.000030  0.000117  0.000055
  1C   1dxz      -0.000005 -0.000010  0.000003  0.000053 -0.000085 -0.000167
  1C   1dyz      -0.000003 -0.000007  0.000006  0.000067 -0.000019 -0.000034
  1C   1dx2y2    -0.000227  0.000160  0.000039  0.000017 -0.000131  0.000037
  1C   1dxy       0.000001  0.000003 -0.000001  0.000217  0.000021  0.000041
  2H   1s        -0.000042 -0.000023  0.000047 -0.000000  0.000247 -0.000238
  2H   2s         0.000473 -0.002594 -0.000894 -0.000000  0.000009 -0.001552
  3H   1s        -0.000013  0.000043 -0.000042  0.000029  0.000221 -0.000136
  3H   2s         0.000423 -0.002647 -0.000723  0.001247  0.001030 -0.000227
  4H   1s        -0.000013  0.000043 -0.000042 -0.000029  0.000221 -0.000136
  4H   2s         0.000423 -0.002646 -0.000723 -0.001248  0.001030 -0.000227
  5H   1s        -0.000311  0.000063  0.000087 -0.000383  0.000227  0.000049
  5H   2s         0.001011  0.000992 -0.001713  0.000750 -0.001228 -0.000313
  6H   1s        -0.000311  0.000063  0.000087  0.000383  0.000227  0.000049
  6H   2s         0.001011  0.000992 -0.001713 -0.000749 -0.001229 -0.000313
                      6         7         8         9        10        11   
                  -0.98397  -0.79484  -0.58759  -0.57596  -0.49739  -0.48874
                   2.00000   2.00000   2.00000   2.00000   2.00000   2.00000
                  --------  --------  --------  --------  --------  --------
  0P   1s        -0.030952  0.052973  0.000002 -0.008337 -0.000000  0.004631
  0P   2s         0.144830 -0.248153 -0.000009  0.038076  0.000002 -0.019260
  0P   1pz        0.012046 -0.046113  0.022255 -0.055301 -0.035789  0.076798
  0P   1px        0.046331  0.016201 -0.000003  0.013521 -0.000041 -0.145035
  0P   1py       -0.002929  0.011213  0.091448  0.013465 -0.147187 -0.018642
  0P   3s        -0.277639  0.495856  0.000019 -0.086249  0.000002  0.054627
  0P   2pz       -0.027085  0.108750 -0.054035  0.133962  0.090952 -0.194470
  0P   2px       -0.098602 -0.038150  0.000006 -0.031514  0.000102  0.361032
  0P   2py        0.006586 -0.026444 -0.222032 -0.032617  0.374056  0.047205
  0P   4s        -0.067571  0.216331  0.000016 -0.039328 -0.000032 -0.019460
  0P   3pz        0.000089  0.005654 -0.008948  0.040035  0.016674 -0.051960
  0P   3px        0.006095  0.000439 -0.000000  0.011465  0.000014  0.056612
  0P   3py       -0.000021 -0.001376 -0.036768 -0.009744  0.068607  0.012621
  0P   1dz2       0.012825  0.010086 -0.017311  0.009922  0.037917 -0.041185
  0P   1dxz       0.000979 -0.006968 -0.002995  0.018496 -0.006306  0.017123
  0P   1dyz      -0.000676  0.002066 -0.038651 -0.001077  0.084690 -0.001722
  0P   1dx2y2    -0.019605 -0.025447 -0.009988 -0.013045  0.021913  0.077892
  0P   1dxy      -0.000239  0.001697 -0.012295 -0.004501 -0.025958 -0.004161
  1C   1s         0.178065  0.080883 -0.000002 -0.002059 -0.000005 -0.018433
  1C   2s        -0.333300 -0.153688  0.000003  0.006315  0.000006  0.026907
  1C   1pz       -0.001040  0.016271 -0.088981  0.402512 -0.051712  0.099573
  1C   1px        0.015127 -0.150085 -0.000016  0.064094 -0.000087 -0.367042
  1C   1py        0.000248 -0.003962 -0.365569 -0.097967 -0.212676 -0.024161
  1C   3s        -0.353487 -0.187861  0.000009 -0.007677  0.000032  0.122621
  1C   2pz       -0.001661  0.005120 -0.051293  0.224305 -0.029070  0.064993
  1C   2px        0.010440 -0.051823 -0.000008  0.043376 -0.000060 -0.248832
  1C   2py        0.000402 -0.001246 -0.210728 -0.054592 -0.119574 -0.015775
  1C   1dz2      -0.000065 -0.007161  0.009896  0.023436  0.006981 -0.005343
  1C   1dxz      -0.000113  0.000245 -0.003058  0.015699 -0.003612  0.007738
  1C   1dyz      -0.000118 -0.000434  0.022094 -0.012672  0.015583 -0.003414
  1C   1dx2y2     0.000569  0.014081  0.005715  0.008412  0.004036  0.022432
  1C   1dxy       0.000027 -0.000060 -0.012561 -0.003820 -0.014855 -0.001878
  2H   1s        -0.116774 -0.080555 -0.000019  0.269237  0.000007 -0.003889
  2H   2s        -0.024803 -0.038449 -0.000012  0.202920  0.000006 -0.006479
  3H   1s        -0.116685 -0.093589 -0.197327 -0.110643 -0.128573 -0.107446
  3H   2s        -0.025801 -0.047790 -0.143421 -0.086429 -0.120443 -0.098563
  4H   1s        -0.116680 -0.093586  0.197338 -0.110619  0.128514 -0.107525
  4H   2s        -0.025801 -0.047789  0.143429 -0.086409  0.120394 -0.098638
  5H   1s        -0.049116  0.140356 -0.103810  0.030772  0.215126 -0.121954
  5H   2s        -0.020200  0.083478 -0.107809  0.029599  0.268772 -0.143071
  6H   1s        -0.049110  0.140345  0.103796  0.030798 -0.215182 -0.121855
  6H   2s        -0.020198  0.083473  0.107794  0.029631 -0.268833 -0.142945
                     12        13        14        15        16        17   
                  -0.35657   0.16816   0.18595   0.28310   0.28526   0.29377
                   2.00000   0.00000   0.00000   0.00000   0.00000   0.00000
                  --------  --------  --------  --------  --------  --------
  0P   1s         0.026560  0.003947  0.000003  0.040307  0.019652  0.000009
  0P   2s        -0.122799  0.001707 -0.000011 -0.126266 -0.092372 -0.000024
  0P   1pz        0.169280 -0.054504  0.027994 -0.036666 -0.075384 -0.014860
  0P   1px        0.107910  0.079306  0.000008 -0.026902  0.024724 -0.000001
  0P   1py       -0.041182  0.013247  0.115143  0.008928  0.018350 -0.060989
  0P   3s         0.284070  0.115016  0.000056  0.697307  0.233380  0.000160
  0P   2pz       -0.442481  0.139308 -0.070740  0.147336  0.252177  0.055531
  0P   2px       -0.279992 -0.186194 -0.000020  0.039979 -0.079563 -0.000006
  0P   2py        0.107647 -0.033858 -0.290975 -0.035876 -0.061397  0.227885
  0P   4s         0.296781 -0.136651 -0.000016  0.504328  0.944017  0.000044
  0P   3pz       -0.282577  0.570834 -0.329579  0.133683  0.478127 -0.069673
  0P   3px       -0.174579 -1.088877 -0.000119  0.852698  0.090672  0.000122
  0P   3py        0.068745 -0.138720 -1.355122 -0.032357 -0.116067 -0.285996
  0P   1dz2      -0.001676 -0.039661  0.044019  0.029409 -0.014256  0.000525
  0P   1dxz       0.005007 -0.002925 -0.003409  0.018849  0.057214  0.019470
  0P   1dyz       0.001031 -0.005102  0.098302  0.003082  0.000766  0.001169
  0P   1dx2y2    -0.001078  0.088386  0.025420 -0.062895  0.021666  0.000292
  0P   1dxy      -0.001221  0.000710 -0.014051 -0.004603 -0.013941  0.079925
  1C   1s         0.014729 -0.101105 -0.000005 -0.043783  0.083546 -0.000001
  1C   2s        -0.031217  0.071680 -0.000001 -0.010867 -0.039800 -0.000013
  1C   1pz        0.092497 -0.001498  0.009867  0.056880  0.168062  0.064361
  1C   1px        0.138702 -0.116757  0.000005  0.276172 -0.081996  0.000035
  1C   1py       -0.022503  0.000360  0.040516 -0.013898 -0.040950  0.264147
  1C   3s        -0.045950  1.503532  0.000123  1.123545 -1.535911  0.000120
  1C   2pz        0.061664 -0.043783  0.066640  0.303389  0.872449  0.349115
  1C   2px        0.091629 -0.312232 -0.000006  1.044745 -0.176602  0.000129
  1C   2py       -0.015003  0.010629  0.273604 -0.074131 -0.212641  1.432864
  1C   1dz2       0.009163 -0.004237  0.000382 -0.009448 -0.008298  0.004300
  1C   1dxz       0.014443 -0.008043  0.004642 -0.004633 -0.017040 -0.004153
  1C   1dyz      -0.003929  0.001377  0.000861  0.001065  0.004275  0.009609
  1C   1dx2y2    -0.000680  0.002016  0.000222  0.012232 -0.002167  0.002485
  1C   1dxy      -0.003513  0.001955  0.019093  0.001131  0.004149 -0.017049
  2H   1s         0.098082 -0.026573 -0.000015 -0.024876 -0.067140 -0.000021
  2H   2s         0.138254 -0.396869 -0.000136 -1.338119 -0.559909 -0.000627
  3H   1s        -0.019774  0.003468  0.035423  0.006593  0.041632 -0.077199
  3H   2s        -0.020041 -0.288546 -0.029098 -0.730355  1.236314 -1.537165
  4H   1s        -0.019780  0.003474 -0.035409  0.006559  0.041603  0.077226
  4H   2s        -0.020050 -0.288534  0.029153 -0.730952  1.235660  1.537487
  5H   1s        -0.095570 -0.051887  0.116877  0.033887 -0.056421 -0.031756
  5H   2s        -0.117728 -0.490402  1.022891 -0.398648 -0.801956 -0.092354
  6H   1s        -0.095580 -0.051865 -0.116896  0.033880 -0.056414  0.031762
  6H   2s        -0.117750 -0.490240 -1.023036 -0.398515 -0.801785  0.092183
                     18        19        20        21        22        23   
                   0.30393   0.46747   0.48292   0.52689   0.57987   0.71016
                   0.00000   0.00000   0.00000   0.00000   0.00000   0.00000
                  --------  --------  --------  --------  --------  --------
  0P   1s        -0.031674  0.000003  0.003911 -0.005116 -0.052023 -0.000001
  0P   2s         0.133025  0.000008 -0.042914  0.020280 -0.110850 -0.000008
  0P   1pz        0.024183 -0.065423  0.266478  0.030181 -0.039920 -0.001877
  0P   1px       -0.011679  0.000000 -0.029527  0.302299 -0.003946  0.000000
  0P   1py       -0.005878 -0.268803 -0.064862 -0.007348  0.009692 -0.007725
  0P   3s        -0.434255  0.000112 -0.037204 -0.078088 -1.881022 -0.000061
  0P   2pz       -0.046781  0.285881 -1.174437 -0.128517  0.128095  0.006174
  0P   2px        0.049834  0.000005  0.122689 -1.333099 -0.038250 -0.000005
  0P   2py        0.011355  1.174582  0.285862  0.031286 -0.031071  0.025426
  0P   4s        -1.275798 -0.000294  0.657164 -0.463382  5.038136  0.000158
  0P   3pz       -1.188249 -0.261911  1.438971 -0.017890  1.386529 -0.121281
  0P   3px       -0.378163 -0.000103  0.173706  1.002446  1.021677  0.000031
  0P   3py        0.289090 -1.075734 -0.350189  0.004319 -0.337257 -0.498518
  0P   1dz2      -0.029411  0.037542 -0.025914 -0.006687  0.116639 -0.004445
  0P   1dxz       0.041147 -0.002747  0.011166 -0.028586  0.126907  0.093626
  0P   1dyz       0.020602  0.083844  0.003965  0.006690 -0.052316 -0.009935
  0P   1dx2y2    -0.028741  0.021672  0.029609 -0.014294  0.000286 -0.002563
  0P   1dxy      -0.010020 -0.011292 -0.002725  0.006956 -0.030915  0.384403
  1C   1s        -0.062094  0.000001  0.011338 -0.045094  0.001950 -0.000001
  1C   2s         0.026589 -0.000011 -0.010438  0.178640  0.083253 -0.000008
  1C   1pz        0.206938 -0.020414  0.077967  0.014665 -0.124948 -0.157273
  1C   1px       -0.000409 -0.000016  0.035227 -0.044038  0.228344  0.000024
  1C   1py       -0.050403 -0.083860 -0.018967 -0.003574  0.030466 -0.645777
  1C   3s         1.084588 -0.000006 -0.115516 -0.010174 -0.498124  0.000030
  1C   2pz        1.147960 -0.057606  0.179942  0.036906 -0.053447  0.247700
  1C   2px       -0.231072 -0.000098  0.324568 -0.626973  0.840486  0.000034
  1C   2py       -0.279565 -0.236706 -0.043794 -0.008990  0.012956  1.017107
  1C   1dz2      -0.000903 -0.005245 -0.016086  0.038063  0.012625  0.029203
  1C   1dxz      -0.000442 -0.001646  0.005282  0.005402 -0.036402 -0.019765
  1C   1dyz       0.002979 -0.011708  0.006658  0.000506  0.004994  0.065219
  1C   1dx2y2    -0.009959 -0.003026  0.002113 -0.067881 -0.041208  0.016859
  1C   1dxy       0.000109 -0.006767 -0.001285 -0.001315  0.008863 -0.081141
  2H   1s        -0.038368  0.000002 -0.055454  0.091418 -0.117549 -0.000099
  2H   2s        -1.522239  0.000112 -0.607742 -0.169380 -0.521856 -0.000013
  3H   1s         0.013920  0.032524  0.006125  0.081572  0.070627 -0.398683
  3H   2s         0.363638  0.452242  0.154941 -0.082760 -0.661756  0.163622
  4H   1s         0.013901 -0.032529  0.006113  0.081574  0.070554  0.398774
  4H   2s         0.363128 -0.452133  0.154923 -0.082797 -0.661650 -0.163722
  5H   1s         0.029551  0.114028 -0.090214  0.023324 -0.118260 -0.098764
  5H   2s         1.044990 -0.188093 -0.217140  0.150394 -1.648352  0.286849
  6H   1s         0.029546 -0.113993 -0.090240  0.023330 -0.118286  0.098719
  6H   2s         1.044961  0.188213 -0.217095  0.150373 -1.648200 -0.286925
                     24        25        26        27        28        29   
                   0.73290   0.81125   0.91498   0.93729   1.03673   1.03736
                   0.00000   0.00000   0.00000   0.00000   0.00000   0.00000
                  --------  --------  --------  --------  --------  --------
  0P   1s         0.014268  0.012768 -0.000001  0.013633  0.011684 -0.000068
  0P   2s         0.045429  0.005159 -0.000004  0.031804 -0.013208  0.000075
  0P   1pz        0.011651  0.030574 -0.026668  0.005272 -0.038988  0.000225
  0P   1px        0.019751 -0.093015 -0.000009 -0.006861  0.000719 -0.000006
  0P   1py       -0.002829 -0.007427 -0.109635 -0.001303  0.009480 -0.000064
  0P   3s         0.568771  0.364496 -0.000039  0.499504  0.282148 -0.001663
  0P   2pz       -0.036920 -0.111972  0.099198 -0.013927  0.147599 -0.003603
  0P   2px       -0.049761  0.239591  0.000029  0.026490 -0.027378  0.000167
  0P   2py        0.008956  0.027198  0.407811  0.003459 -0.035960 -0.011052
  0P   4s        -1.787500 -1.732983  0.000078 -1.718479 -1.081915  0.006382
  0P   3pz       -0.945814 -0.090591 -0.267361 -0.591970 -0.210023 -0.053717
  0P   3px       -0.199242 -1.228882 -0.000082 -0.349191 -0.077334  0.000481
  0P   3py        0.230230  0.022127 -1.099322  0.143781  0.049543 -0.225837
  0P   1dz2      -0.125369  0.124621 -0.297323  0.757476 -0.223340 -0.015663
  0P   1dxz       0.360517  0.021274 -0.000151  0.155015  0.769481 -0.215490
  0P   1dyz       0.058132  0.057212 -0.663592 -0.439932  0.080276 -0.038327
  0P   1dx2y2    -0.007753 -0.436996 -0.171684  0.388960  0.074867 -0.010224
  0P   1dxy      -0.087789 -0.005182 -0.000230 -0.037765 -0.192771 -0.865238
  1C   1s        -0.006707  0.023492  0.000001  0.003551  0.009605 -0.000056
  1C   2s         0.011641 -0.153593 -0.000009  0.022866 -0.019676  0.000135
  1C   1pz       -0.635116 -0.076470  0.008272  0.063424  0.492524 -0.133385
  1C   1px       -0.134530  0.714177  0.000026  0.039615  0.230095 -0.001341
  1C   1py        0.154677  0.018615  0.034166 -0.015445 -0.123236 -0.535036
  1C   3s         0.221710  0.078729 -0.000005  0.089955 -0.012196  0.000052
  1C   2pz        1.132506  0.165023 -0.043600  0.048634 -1.335997  0.360152
  1C   2px       -0.138377 -1.953740 -0.000038 -0.467047 -0.352455  0.002094
  1C   2py       -0.275794 -0.040189 -0.179397 -0.011861  0.334264  1.444589
  1C   1dz2      -0.064732  0.027820 -0.010454  0.013553  0.053696  0.034229
  1C   1dxz      -0.072537  0.002711 -0.000465 -0.029586 -0.118032  0.031154
  1C   1dyz       0.034749  0.005502 -0.023322 -0.005433 -0.036787  0.077366
  1C   1dx2y2    -0.022298 -0.069453 -0.006037 -0.002479  0.051499  0.019647
  1C   1dxy       0.017664 -0.000656 -0.001976  0.007208  0.029517  0.124915
  2H   1s        -0.453674  0.219830  0.000015 -0.030690  0.095866 -0.000571
  2H   2s         0.241416  0.469781 -0.000030  0.259032  0.881578 -0.005358
  3H   1s         0.211910  0.270274  0.068592  0.119996 -0.042927 -0.071328
  3H   2s         0.071138  0.515983  0.173208  0.144456 -0.264159 -0.683142
  4H   1s         0.211763  0.270273 -0.068601  0.119937 -0.042046  0.071827
  4H   2s         0.071196  0.515965 -0.173140  0.144410 -0.255997  0.686344
  5H   1s        -0.020830  0.117416 -0.480968 -0.038815 -0.253801 -0.020580
  5H   2s         0.799667  0.065568  1.272146  0.706677  0.645654 -0.040311
  6H   1s        -0.020867  0.117355  0.481027 -0.038643 -0.253529  0.023527
  6H   2s         0.799806  0.065726 -1.272300  0.706197  0.645936  0.032756
                     30        31        32        33        34        35   
                   1.07207   1.16641   1.16703   1.23299   1.37176   1.48160
                   0.00000   0.00000   0.00000   0.00000   0.00000   0.00000
                  --------  --------  --------  --------  --------  --------
  0P   1s         0.021697 -0.000001 -0.002329 -0.001914  0.019467 -0.005998
  0P   2s        -0.030710  0.000003 -0.002511  0.027696 -0.035313 -0.078776
  0P   1pz       -0.069870  0.002391  0.011138  0.032439 -0.069100  0.014267
  0P   1px       -0.016049  0.000001  0.003825 -0.006517  0.004908 -0.077452
  0P   1py        0.016996  0.009794 -0.002711 -0.007894  0.016820 -0.003823
  0P   3s         0.498523 -0.000017 -0.074842  0.059523  0.454608 -0.410769
  0P   2pz        0.244376 -0.020142 -0.085979 -0.111376  0.233042 -0.056437
  0P   2px       -0.005410 -0.000003 -0.013723  0.083877  0.120503  0.499288
  0P   2py       -0.059443 -0.082630  0.020936  0.027108 -0.056720  0.014921
  0P   4s        -2.155984  0.000082  0.299671  0.156361 -0.768875  3.108563
  0P   3pz       -1.061534  0.050757  0.210191  0.228302 -0.416107  0.733385
  0P   3px       -0.157721 -0.000021  0.029429 -0.174571  0.003357  1.093216
  0P   3py        0.258255  0.208249 -0.051167 -0.055565  0.101238 -0.179115
  0P   1dz2      -0.241513  0.013332  0.071190  0.025410  0.252658 -0.287559
  0P   1dxz      -0.333698  0.052639  0.247536  0.056197 -0.100384 -0.011879
  0P   1dyz      -0.011798  0.029774 -0.031431 -0.015935  0.031932  0.021820
  0P   1dx2y2     0.464011  0.007714 -0.001826  0.017689 -0.561589  0.426002
  0P   1dxy       0.081272  0.215996 -0.060273 -0.013714  0.024465  0.002628
  1C   1s         0.022837 -0.000009 -0.003349 -0.053118 -0.014022  0.133404
  1C   2s        -0.031821  0.000149 -0.014680  1.509351  1.024502  1.687995
  1C   1pz       -0.256946 -0.194975 -0.779925  0.019014 -0.016579  0.003716
  1C   1px        0.664594  0.000084 -0.036368  0.457624 -0.364180 -0.202099
  1C   1py        0.062596 -0.800586  0.189971 -0.004499  0.004007 -0.000710
  1C   3s        -0.165946 -0.000290  0.037672 -2.846136 -1.554595 -4.539737
  1C   2pz        0.630575  0.225053  0.866893 -0.028558 -0.000087 -0.084900
  1C   2px       -0.848346 -0.000114  0.077561 -0.732944  0.170341  0.956461
  1C   2py       -0.153628  0.924157 -0.211166  0.006797  0.000058  0.019403
  1C   1dz2      -0.048943 -0.081054  0.162052 -0.052896  0.047347 -0.019916
  1C   1dxz       0.046966  0.022786  0.088708 -0.000732 -0.014010 -0.005419
  1C   1dyz       0.008625 -0.181014 -0.095259  0.001461 -0.005855 -0.009288
  1C   1dx2y2     0.051394 -0.046780  0.087811  0.086108 -0.059430  0.070539
  1C   1dxy      -0.011445  0.093564 -0.021607  0.000164  0.003403  0.001207
  2H   1s        -0.015360  0.000101  0.817014 -0.504286  0.056565  0.645587
  2H   2s         0.016271 -0.000146 -1.399147  1.094917  0.318309  0.129168
  3H   1s        -0.066006  0.720028 -0.425399 -0.475715  0.003336  0.600575
  3H   2s         0.477993 -1.220972  0.646929  1.070867  0.324989  0.216923
  4H   1s        -0.066008 -0.720370 -0.425087 -0.475509  0.003307  0.600085
  4H   2s         0.477803  1.221524  0.646382  1.070507  0.325066  0.215712
  5H   1s        -0.519706  0.024335  0.038208  0.284464 -0.712191  0.170307
  5H   2s         1.327147 -0.152883 -0.171425 -0.392084  0.836647 -0.912869
  6H   1s        -0.519741 -0.024231  0.038205  0.284522 -0.712444  0.176641
  6H   2s         1.327162  0.152674 -0.171461 -0.392159  0.836831 -0.917769
                     36        37        38        39        40        41   
                   1.48283   2.01082   2.01531   2.50759   2.57528   2.57545
                   0.00000   0.00000   0.00000   0.00000   0.00000   0.00000
                  --------  --------  --------  --------  --------  --------
  0P   1s         0.000026  0.000000  0.001151  0.014379 -0.000232  0.000012
  0P   2s         0.000270 -0.000003  0.014420 -0.066039 -0.005989  0.000337
  0P   1pz       -0.022481 -0.006774  0.027511  0.004043  0.007456  0.001935
  0P   1px        0.000274  0.000002  0.000657 -0.117737 -0.004995  0.000283
  0P   1py       -0.092117 -0.027805 -0.006700 -0.000983 -0.001247  0.009725
  0P   3s         0.001561 -0.000010  0.081365  0.214010 -0.025967  0.001440
  0P   2pz        0.075896  0.022512 -0.090538 -0.015570 -0.022336 -0.005964
  0P   2px       -0.001765 -0.000009 -0.012077  0.607993  0.026264 -0.001489
  0P   2py        0.310818  0.092401  0.022048  0.003785  0.003696 -0.029820
  0P   4s        -0.011308  0.000040 -0.409302  0.935986  0.186429 -0.010436
  0P   3pz       -0.049540  0.033680 -0.229982  0.176658  0.173009  0.026600
  0P   3px       -0.003922  0.000012 -0.096857  0.293650  0.039971 -0.002241
  0P   3py       -0.191855  0.138276  0.055987 -0.042962 -0.033359  0.150777
  0P   1dz2       0.313951  0.008540 -0.012910 -0.254762  0.012174 -0.015527
  0P   1dxz      -0.018203  0.065603 -0.269945  0.000412 -0.005252 -0.000692
  0P   1dyz       0.698626  0.019054  0.005518  0.002637 -0.015626 -0.032311
  0P   1dx2y2     0.179023  0.004911  0.001050  0.431048  0.030297 -0.010283
  0P   1dxy      -0.075132  0.269344  0.065747 -0.000101  0.001042 -0.004098
  1C   1s        -0.000478 -0.000002 -0.005038  0.022258  0.002413 -0.000134
  1C   2s        -0.005958 -0.000007 -0.073919  0.336525  0.027392 -0.001545
  1C   1pz        0.013875  0.015445 -0.066653  0.007965 -0.142734 -0.027304
  1C   1px        0.000680 -0.000005  0.023733  0.027355 -0.002979  0.000162
  1C   1py        0.057084  0.063416  0.016236 -0.001945  0.026242 -0.146276
  1C   3s         0.016137  0.000026  0.209765 -0.821057 -0.087025  0.004862
  1C   2pz       -0.079912 -0.073943  0.327769 -0.007608 -0.485350 -0.085028
  1C   2px       -0.003401  0.000016 -0.114074  0.894238  0.064882 -0.003665
  1C   2py       -0.329527 -0.303568 -0.079828  0.001843  0.091096 -0.465283
  1C   1dz2       0.003012  0.229052  0.444085  0.581585 -0.662582  0.402004
  1C   1dxz      -0.007922  0.192628 -0.790982  0.028371 -0.648171 -0.119944
  1C   1dyz       0.006578  0.511593 -0.264391 -0.013127  0.464969  0.789416
  1C   1dx2y2     0.001426  0.132247  0.253570 -0.956367 -0.428862  0.234737
  1C   1dxy      -0.032591  0.790893  0.192661 -0.006931  0.120119 -0.647547
  2H   1s        -0.002278  0.000004 -0.073493 -0.218327  0.807308 -0.044839
  2H   2s        -0.000417  0.000018 -0.106623 -0.048150 -0.103407  0.005765
  3H   1s         0.063572  0.044252  0.005880 -0.183615 -0.367436  0.721899
  3H   2s         0.168106  0.108212  0.088487 -0.040213  0.031985 -0.093719
  4H   1s        -0.067863 -0.044287  0.005865 -0.183676 -0.445118 -0.676721
  4H   2s        -0.169648 -0.108259  0.088435 -0.040187  0.042156  0.089616
  5H   1s        -0.882929 -0.033496  0.033510  0.071059  0.013808  0.036066
  5H   2s         0.690691 -0.036338  0.144195 -0.238601 -0.082398 -0.058318
  6H   1s         0.881399  0.033440  0.033521  0.071052  0.009709 -0.037372
  6H   2s        -0.683801  0.036327  0.144217 -0.238582 -0.075421  0.067132



                    ********************************
                    * MULLIKEN POPULATION ANALYSIS *
                    ********************************

-----------------------
MULLIKEN ATOMIC CHARGES
-----------------------
   0 P :    0.214136
   1 C :   -0.723816
   2 H :    0.191746
   3 H :    0.191336
   4 H :    0.191330
   5 H :   -0.032365
   6 H :   -0.032366
Sum of atomic charges:    0.0000000

--------------------------------
MULLIKEN REDUCED ORBITAL CHARGES
--------------------------------
  0 P s       :     5.652825  s :     5.652825
      pz      :     3.290835  p :     8.998672
      px      :     2.882627
      py      :     2.825210
      dz2     :     0.022271  d :     0.134367
      dxz     :     0.006686
      dyz     :     0.049052
      dx2y2   :     0.048710
      dxy     :     0.007647

  1 C s       :     3.380446  s :     3.380446
      pz      :     1.115451  p :     3.303472
      px      :     1.065895
      py      :     1.122125
      dz2     :     0.009186  d :     0.039899
      dxz     :     0.006738
      dyz     :     0.009485
      dx2y2   :     0.009314
      dxy     :     0.005176

  2 H s       :     0.808254  s :     0.808254

  3 H s       :     0.808664  s :     0.808664

  4 H s       :     0.808670  s :     0.808670

  5 H s       :     1.032365  s :     1.032365

  6 H s       :     1.032366  s :     1.032366



                     *******************************
                     * LOEWDIN POPULATION ANALYSIS *
                     *******************************

----------------------
LOEWDIN ATOMIC CHARGES
----------------------
   0 P :    0.143908
   1 C :   -0.551301
   2 H :    0.136601
   3 H :    0.143544
   4 H :    0.143541
   5 H :   -0.008146
   6 H :   -0.008148

-------------------------------
LOEWDIN REDUCED ORBITAL CHARGES
-------------------------------
  0 P s       :     5.433805  s :     5.433805
      pz      :     3.346026  p :     9.265255
      px      :     2.994968
      py      :     2.924261
      dz2     :     0.025827  d :     0.157032
      dxz     :     0.008672
      dyz     :     0.054945
      dx2y2   :     0.057896
      dxy     :     0.009692

  1 C s       :     3.027469  s :     3.027469
      pz      :     1.151983  p :     3.460450
      px      :     1.157979
      py      :     1.150488
      dz2     :     0.013814  d :     0.063382
      dxz     :     0.011549
      dyz     :     0.013335
      dx2y2   :     0.015987
      dxy     :     0.008698

  2 H s       :     0.863399  s :     0.863399

  3 H s       :     0.856456  s :     0.856456

  4 H s       :     0.856459  s :     0.856459

  5 H s       :     1.008146  s :     1.008146

  6 H s       :     1.008148  s :     1.008148



                      *****************************
                      * MAYER POPULATION ANALYSIS *
                      *****************************

  NA   - Mulliken gross atomic population
  ZA   - Total nuclear charge
  QA   - Mulliken gross atomic charge
  VA   - Mayer's total valence
  BVA  - Mayer's bonded valence
  FA   - Mayer's free valence

  ATOM       NA         ZA         QA         VA         BVA        FA
  0 P     14.7859    15.0000     0.2141     2.8460     2.8460     0.0000
  1 C      6.7238     6.0000    -0.7238     3.7730     3.7730     0.0000
  2 H      0.8083     1.0000     0.1917     0.9143     0.9143     0.0000
  3 H      0.8087     1.0000     0.1913     0.9226     0.9226     0.0000
  4 H      0.8087     1.0000     0.1913     0.9226     0.9226     0.0000
  5 H      1.0324     1.0000    -0.0324     0.9605     0.9605    -0.0000
  6 H      1.0324     1.0000    -0.0324     0.9605     0.9605    -0.0000

  Mayer bond orders larger than 0.100000
B(  0-P ,  1-C ) :   0.9468 B(  0-P ,  5-H ) :   0.9614 B(  0-P ,  6-H ) :   0.9614 
B(  1-C ,  2-H ) :   0.9449 B(  1-C ,  3-H ) :   0.9442 B(  1-C ,  4-H ) :   0.9442 


-------
TIMINGS
-------

Total SCF time: 0 days 0 hours 0 min 0 sec 

Total time                  ....       0.320 sec
Sum of individual times     ....       0.318 sec  ( 99.2%)

SCF preparation             ....       0.007 sec  (  2.2%)
Fock matrix formation       ....       0.300 sec  ( 93.7%)
  Startup                   ....       0.001 sec  (  0.3% of F)
  Coulomb+Exchange Fock     ....       0.297 sec  ( 98.8% of F)
Diagonalization             ....       0.000 sec  (  0.0%)
Density matrix formation    ....       0.002 sec  (  0.7%)
Total Energy calculation    ....       0.001 sec  (  0.2%)
Population analysis         ....       0.001 sec  (  0.4%)
Orbital Transformation      ....       0.001 sec  (  0.2%)
Orbital Orthonormalization  ....       0.000 sec  (  0.0%)
DIIS solution               ....       0.004 sec  (  1.2%)
SOSCF solution              ....       0.002 sec  (  0.6%)
Finished LeanSCF after   0.3 sec

Maximum memory used throughout the entire LEANSCF-calculation: 7.5 MB

------------------------------------------------------------------------------
                         ORCA PROPERTY INTEGRAL CALCULATIONS
------------------------------------------------------------------------------

GBWName                                   ... system.gbw
Number of atoms                           ...      7
Number of basis functions                 ...     42
Max core memory                           ...   1024 MB

Dipole integrals                          ... YES
Quadrupole integrals                      ...  NO
Linear momentum integrals                 ...  NO
Angular momentum integrals                ...  NO
Higher moments length integrals           ...  NO
Higher moments velocity integrals         ...  NO
Kinetic energy integrals                  ...  NO
GIAO right hand sides                     ...  NO
GIAO dipole derivative integrals          ...  NO
SOC integrals                             ...  NO
EPR diamagnetic integrals (GIAO)          ...  NO
EPR gauge integrals                       ...  NO
Field gradient integrals                  ...  NO (   0 nuclei)
Spin-dipole/Fermi contact integrals       ...  NO (   0 nuclei)
Contact density integrals                 ...  NO (   0 nuclei)
Nucleus-orbit integrals                   ...  NO (   0 nuclei)
Geometric perturbations                   ...  NO (   7 nuclei)

Choice of electric origin   ... Center of mass
Position of electric origin ... ( -0.6169, -0.0175,  0.0719) 
Choice of magnetic origin   ... GIAO
Position of magnetic origin ... (  0.0000,  0.0000,  0.0000) 

Calculating integrals                     ... Electric Dipole (Length)     done (  0.0 sec)

Property integrals calculated in   0.0 sec

Maximum memory used throughout the entire PROPINT-calculation: 4.1 MB

-------------------------   --------------------
FINAL SINGLE POINT ENERGY      -381.483686787216
-------------------------   --------------------

------------------------------------------------------------------------------
                         ORCA SCF GRADIENT CALCULATION
------------------------------------------------------------------------------

Nuc. rep. gradient        (SHARK) ... done (  0.0 sec)
HCore & Overlap gradient  (SHARK) ... done (  0.0 sec)
Two-electron gradient     (SHARK) ... done (  0.1 sec)

------------------
CARTESIAN GRADIENT
------------------

   1   P   :    0.010570006    0.001059685   -0.004319547
   2   C   :   -0.016553662    0.001294096   -0.005273374
   3   H   :   -0.000908794   -0.001880838    0.007740065
   4   H   :    0.002518103    0.006209214   -0.000445154
   5   H   :    0.002518417   -0.005316902   -0.003258403
   6   H   :    0.000932174    0.003397952    0.003764446
   7   H   :    0.000923757   -0.004763207    0.001791966

Difference to translation invariance:
           :   -0.0000000000   -0.0000000000    0.0000000000

Difference to rotation invariance:
           :   -0.0000000292    0.0000012658    0.0000003224

Norm of the Cartesian gradient     ...    0.0253563895
RMS gradient                       ...    0.0055332178
MAX gradient                       ...    0.0165536622

-------
TIMINGS
-------

Total SCF gradient time     ....        0.153 sec

Densities                   ....       0.000 sec  (  0.0%)
One electron gradient       ....       0.004 sec  (  2.9%)
Two electron gradient       ....       0.148 sec  ( 97.1%)

Maximum memory used throughout the entire SCFGRAD-calculation: 13.3 MB
------------------------------------------------------------------------------
                         ORCA GEOMETRY RELAXATION STEP
------------------------------------------------------------------------------

Reading the OPT-File                    .... done
Getting information on internals        .... done
Copying old internal coords+grads       .... done
Making the new internal coordinates     .... (2022 redundants) done
Validating the new internal coordinates .... (2022 redundants) done
Calculating the B-matrix                .... done
Calculating the G,G- and P matrices     .... done
Transforming gradient to internals      .... done
Projecting the internal gradient        .... done
Number of atoms                         ....   7
Number of internal coordinates          ....  20
Current Energy                          ....  -381.483686787 Eh
Current gradient norm                   ....     0.025356390 Eh/bohr
Maximum allowed component of the step   ....  0.300
Current trust radius                    ....  0.300
Evaluating the initial hessian          ....  (Almloef) done
Projecting the Hessian                  .... done
Forming the augmented Hessian           .... done
Diagonalizing the augmented Hessian     .... done
Last element of RFO vector              ....  0.998249881
Lowest eigenvalues of augmented Hessian:
 -0.001202520  0.003783328  0.131144512  0.132811301  0.201024344
Length of the computed step             ....  0.059240596
The final length of the internal step   ....  0.059240596
Converting the step to Cartesian space:
 Initial RMS(Int)=    0.0132466001
Transforming coordinates:
 Iter   0:  RMS(Cart)=    0.0197531072 RMS(Int)=    0.0132212131
done
Storing new coordinates                 .... done

                                .--------------------.
          ----------------------|Geometry convergence|-------------------------
          Item                value                   Tolerance       Converged
          ---------------------------------------------------------------------
          RMS gradient        0.0046606072            0.0001000000      NO
          MAX gradient        0.0124258732            0.0003000000      NO
          RMS step            0.0132466001            0.0020000000      NO
          MAX step            0.0301880898            0.0040000000      NO
          ........................................................
          Max(Bonds)      0.0160      Max(Angles)    1.24
          Max(Dihed)        0.66      Max(Improp)    0.00
          ---------------------------------------------------------------------

The optimization has not yet converged - more geometry cycles are needed


    ---------------------------------------------------------------------------
                         Redundant Internal Coordinates
                            (Angstroem and degrees)

        Definition                    Value    dE/dq     Step     New-Value
    ----------------------------------------------------------------------------
     1. B(C   1,P   0)                1.8344 -0.012426  0.0160    1.8504   
     2. B(H   2,C   1)                1.0935  0.007137 -0.0106    1.0829   
     3. B(H   3,C   1)                1.0934  0.006580 -0.0098    1.0837   
     4. B(H   4,C   1)                1.0935  0.006591 -0.0098    1.0837   
     5. B(H   5,P   0)                1.4150  0.004866 -0.0070    1.4080   
     6. B(H   6,P   0)                1.4150  0.004885 -0.0070    1.4080   
     7. A(C   1,P   0,H   5)           97.44 -0.003929    0.59     98.03   
     8. A(C   1,P   0,H   6)           97.44 -0.003914    0.59     98.03   
     9. A(H   5,P   0,H   6)           95.55  0.001967   -0.30     95.25   
    10. A(H   2,C   1,H   3)          108.40  0.001262    0.00    108.40   
    11. A(H   3,C   1,H   4)          108.41  0.001304   -0.60    107.80   
    12. A(H   2,C   1,H   4)          108.40  0.000737    0.01    108.41   
    13. A(P   0,C   1,H   4)          110.49  0.001526   -0.33    110.15   
    14. A(P   0,C   1,H   3)          110.49  0.001806   -0.34    110.15   
    15. A(P   0,C   1,H   2)          110.59 -0.006510    1.24    111.83   
    16. D(H   2,C   1,P   0,H   6)    -48.31 -0.000639    0.19    -48.12   
    17. D(H   3,C   1,P   0,H   5)    -71.70  0.001687   -0.53    -72.23   
    18. D(H   3,C   1,P   0,H   6)   -168.33  0.000833   -0.40   -168.73   
    19. D(H   4,C   1,P   0,H   5)    168.34 -0.002095    0.66    169.00   
    20. D(H   2,C   1,P   0,H   5)     48.32  0.000215    0.06     48.38   
    ----------------------------------------------------------------------------

Geometry step timings:
Preparation and reading OPT file:      0.000 s (27.748 %)
Internal coordinates            :      0.000 s ( 3.095 %)
B/P matrices and projection     :      0.000 s ( 8.324 %)
Hessian update/contruction      :      0.000 s (23.159 %)
Making the step                 :      0.000 s (19.851 %)
Converting the step to Cartesian:      0.000 s ( 1.067 %)
Storing new data                :      0.000 s ( 3.842 %)
Checking convergence            :      0.000 s ( 0.000 %)
Final printing                  :      0.000 s (11.953 %)
Total time                      :      0.001 s

Time for energy+gradient        :      0.818 s
Time for complete geometry iter :      0.862 s

         *************************************************************
         *                GEOMETRY OPTIMIZATION CYCLE   2            *
         *************************************************************
---------------------------------
CARTESIAN COORDINATES (ANGSTROEM)
---------------------------------
  P     -0.922110   -0.001603    0.004147
  C      0.928264   -0.001660    0.006062
  H      1.329928   -0.240360    0.982974
  H      1.301868    0.971913   -0.288791
  H      1.302286   -0.729165   -0.704716
  H     -1.119968    0.791014    1.150880
  H     -1.119567   -1.230939    0.661544

----------------------------
CARTESIAN COORDINATES (A.U.)
----------------------------
  NO LB      ZA    FRAG     MASS         X           Y           Z
   0 P    15.0000    0    30.974   -1.742535   -0.003028    0.007836
   1 C     6.0000    0    12.011    1.754164   -0.003138    0.011456
   2 H     1.0000    0     1.008    2.513199   -0.454214    1.857552
   3 H     1.0000    0     1.008    2.460173    1.836649   -0.545736
   4 H     1.0000    0     1.008    2.460964   -1.377922   -1.331720
   5 H     1.0000    0     1.008   -2.116434    1.494799    2.174849
   6 H     1.0000    0     1.008   -2.115675   -2.326137    1.250136

--------------------------------
INTERNAL COORDINATES (ANGSTROEM)
--------------------------------
 P      0   0   0     0.000000000000     0.00000000     0.00000000
 C      1   0   0     1.850374849079     0.00000000     0.00000000
 H      2   1   0     1.082898373299   111.83014766     0.00000000
 H      2   1   3     1.083680279826   110.14790617   239.39447797
 H      2   1   3     1.083679160094   110.15024306   120.61415442
 H      1   2   3     1.407972469391    98.03058084    48.38263508
 H      1   2   3     1.407986902468    98.03221937   311.87886206

---------------------------
INTERNAL COORDINATES (A.U.)
---------------------------
 P      0   0   0     0.000000000000     0.00000000     0.00000000
 C      1   0   0     3.496701709855     0.00000000     0.00000000
 H      2   1   0     2.046381356404   111.83014766     0.00000000
 H      2   1   3     2.047858945601   110.14790617   239.39447797
 H      2   1   3     2.047856829615   110.15024306   120.61415442
 H      1   2   3     2.660682371250    98.03058084    48.38263508
 H      1   2   3     2.660709645814    98.03221937   311.87886206

------------------------------------------------------------------------------
                   ___                                                        
                  /   \      - P O W E R E D   B Y -                         
                 /     \                                                     
                 |  |  |   _    _      __       _____    __    __             
                 |  |  |  | |  | |    /  \     |  _  \  |  |  /  |          
                  \  \/   | |  | |   /    \    | | | |  |  | /  /          
                 / \  \   | |__| |  /  /\  \   | |_| |  |  |/  /          
                |  |  |   |  __  | /  /__\  \  |    /   |      \           
                |  |  |   | |  | | |   __   |  |    \   |  |\   \          
                \     /   | |  | | |  |  |  |  | |\  \  |  | \   \       
                 \___/    |_|  |_| |__|  |__|  |_| \__\ |__|  \__/        
                                                                              
                      - O R C A' S   B I G   F R I E N D -                    
                                      &                                       
                       - I N T E G R A L  F E E D E R -                       
                                                                              
 v1 FN, 2020, v2 2021, v3 2022-2024                                           
------------------------------------------------------------------------------


----------------------
SHARK INTEGRAL PACKAGE
----------------------

Number of atoms                             ...      7
Number of basis functions                   ...     42
Number of shells                            ...     24
Maximum angular momentum                    ...      2
Integral batch strategy                     ... SHARK/LIBINT Hybrid
RI-J (if used) integral strategy            ... SPLIT-RIJ (Revised 2003 algorithm where possible)
Printlevel                                  ...      1
Contraction scheme used                     ... SEGMENTED contraction
Prescreening option                         ... SCHWARTZ
   Thresh                                   ... 2.500e-11
   Tcut                                     ... 2.500e-12
   Tpresel                                  ... 2.500e-12 
Coulomb Range Separation                    ... NOT USED
Exchange Range Separation                   ... NOT USED
Multipole approximations                    ... NOT USED
Finite Nucleus Model                        ... NOT USED
CABS basis                                  ... NOT available
Auxiliary Coulomb fitting basis             ... NOT available
Auxiliary J/K fitting basis                 ... NOT available
Auxiliary Correlation fitting basis         ... NOT available
Auxiliary 'external' fitting basis          ... NOT available

Checking pre-screening integrals            ... done (  0.0 sec) Dimension = 24
Check shell pair data                       ... done (  0.0 sec)
Shell pair information
Shell pair cut-off parameter TPreSel        ...   2.5e-12
Total number of shell pairs                 ...       300
Shell pairs after pre-screening             ...       299
Total number of primitive shell pairs       ...      2040
Primitive shell pairs kept                  ...      1692
          la=0 lb=0:    152 shell pairs
          la=1 lb=0:     85 shell pairs
          la=1 lb=1:     15 shell pairs
          la=2 lb=0:     34 shell pairs
          la=2 lb=1:     10 shell pairs
          la=2 lb=2:      3 shell pairs

[...]

 

Dipole moment calculation done in   0.0 sec 

-----------
SCF HESSIAN
-----------

Occupied/Occupied contributions to the Hessian:
   => Occupied/Occupied contributions              ... done (  0.0 sec)
Perturbed density contributions to the Hessian:
   => Perturbed density contributions              ... done (  0.0 sec)
Explicit contributions to the Hessian:
   => Nuclear repulsion Hessian                    ... done (  0.0 sec)
   => HCore and overlap Hessian                    ... done (  0.1 sec)
   => Exact two electron integral Hessian          ... done (  0.8 sec)
   => Explicit contributions done
Dipole derivatives                                 ... done (  0.0 sec)
Mass weighting the Hessian           ... done
Calculating normal modes             ... done
Scaling frequencies                  ... done

-----------------------
VIBRATIONAL FREQUENCIES
-----------------------

Scaling factor for frequencies =  1.000000000  (already applied!)

     0:       0.00 cm**-1
     1:       0.00 cm**-1
     2:       0.00 cm**-1
     3:       0.00 cm**-1
     4:       0.00 cm**-1
     5:       0.00 cm**-1
     6:     244.78 cm**-1
     7:     736.06 cm**-1
     8:     757.36 cm**-1
     9:     803.07 cm**-1
    10:    1104.22 cm**-1
    11:    1137.09 cm**-1
    12:    1247.25 cm**-1
    13:    1488.35 cm**-1
    14:    1619.73 cm**-1
    15:    1624.07 cm**-1
    16:    2577.74 cm**-1
    17:    2584.82 cm**-1
    18:    3211.98 cm**-1
    19:    3284.14 cm**-1
    20:    3298.04 cm**-1


------------
NORMAL MODES
------------

These modes are the Cartesian displacements weighted by the diagonal matrix
M(i,i)=1/sqrt(m[i]) where m[i] is the mass of the displaced atom
Thus, these vectors are normalized but *not* orthogonal

                  0          1          2          3          4          5    
      0       0.000000   0.000000   0.000000   0.000000   0.000000   0.000000
      1       0.000000   0.000000   0.000000   0.000000   0.000000   0.000000
      2       0.000000   0.000000   0.000000   0.000000   0.000000   0.000000
      3       0.000000   0.000000   0.000000   0.000000   0.000000   0.000000
      4       0.000000   0.000000   0.000000   0.000000   0.000000   0.000000
      5       0.000000   0.000000   0.000000   0.000000   0.000000   0.000000
      6       0.000000   0.000000   0.000000   0.000000   0.000000   0.000000
      7       0.000000   0.000000   0.000000   0.000000   0.000000   0.000000
      8       0.000000   0.000000   0.000000   0.000000   0.000000   0.000000
      9       0.000000   0.000000   0.000000   0.000000   0.000000   0.000000
     10       0.000000   0.000000   0.000000   0.000000   0.000000   0.000000
     11       0.000000   0.000000   0.000000   0.000000   0.000000   0.000000
     12       0.000000   0.000000   0.000000   0.000000   0.000000   0.000000
     13       0.000000   0.000000   0.000000   0.000000   0.000000   0.000000
     14       0.000000   0.000000   0.000000   0.000000   0.000000   0.000000
     15       0.000000   0.000000   0.000000   0.000000   0.000000   0.000000
     16       0.000000   0.000000   0.000000   0.000000   0.000000   0.000000
     17       0.000000   0.000000   0.000000   0.000000   0.000000   0.000000
     18       0.000000   0.000000   0.000000   0.000000   0.000000   0.000000
     19       0.000000   0.000000   0.000000   0.000000   0.000000   0.000000
     20       0.000000   0.000000   0.000000   0.000000   0.000000   0.000000
                  6          7          8          9         10         11    
      0       0.000004  -0.217994  -0.000042   0.001003  -0.026701  -0.000002
      1      -0.021274   0.000877   0.004736  -0.002825   0.010347   0.035936
      2      -0.005179  -0.003589   0.001151   0.011600  -0.042540   0.008736
      3      -0.000012   0.430330   0.000083   0.070165  -0.004577  -0.000009
      4      -0.001337   0.007746   0.036395  -0.008300  -0.028993  -0.122068
      5      -0.000321  -0.032051   0.008849   0.034123   0.119252  -0.029678
      6      -0.000036   0.155820   0.000053   0.515490   0.573569   0.000096
      7      -0.387984  -0.021125  -0.235665   0.036173   0.028636   0.206754
      8      -0.094373   0.087402  -0.057317  -0.148808  -0.117874   0.050265
      9      -0.034055   0.569857   0.418011  -0.169487  -0.273958  -0.459172
     10       0.145238  -0.000322  -0.138238   0.018311  -0.017641   0.087572
     11       0.419260   0.101556  -0.035336  -0.169842  -0.172720   0.083305
     12       0.034013   0.570554  -0.417858  -0.169468  -0.274032   0.459124
     13       0.321573  -0.046096  -0.139020   0.061790   0.094975   0.116066
     14      -0.305705   0.090340  -0.032092  -0.159309  -0.145277  -0.033821
     15       0.025468   0.137754  -0.517995  -0.521715   0.424818  -0.491049
     16       0.380306  -0.050083  -0.015897   0.059329  -0.115954  -0.021817
     17      -0.277009   0.100560  -0.078881  -0.136560   0.142379  -0.041106
     18      -0.025384   0.136905   0.518091  -0.521710   0.424609   0.491176
     19       0.210491  -0.001607  -0.050394   0.010115   0.037523  -0.038286
     20       0.420786   0.112332   0.062812  -0.148511   0.179690   0.026537
                 12         13         14         15         16         17    
      0      -0.014474   0.000880  -0.000204   0.000000  -0.000028  -0.007116
      1      -0.006171  -0.000305   0.000964   0.003723   0.033044  -0.006978
      2       0.025358   0.001247  -0.003990   0.000899   0.008164   0.028091
      3      -0.002249  -0.130374  -0.007611  -0.000015   0.000001   0.000473
      4      -0.003446  -0.000461   0.014421   0.059561  -0.001287   0.000067
      5       0.014160   0.001919  -0.059738   0.014376  -0.000315  -0.000251
      6       0.072692   0.488419   0.328215   0.000556   0.000013   0.001985
      7       0.003298   0.056146   0.044151  -0.706762  -0.001643  -0.002476
      8      -0.013470  -0.230904  -0.176165  -0.172249  -0.000345   0.010182
      9      -0.014476   0.542404  -0.128171  -0.299405   0.002968  -0.006394
     10      -0.004467  -0.218977   0.254865   0.028821   0.008075  -0.000225
     11      -0.004283   0.032226   0.588777  -0.376508  -0.002805   0.000879
     12      -0.014483   0.542366  -0.129227   0.298971  -0.003021  -0.006358
     13       0.005921   0.179698  -0.496301  -0.149070   0.005883  -0.000254
     14      -0.001786   0.129171   0.404719   0.349101   0.006211   0.000850
     15       0.213928  -0.023363   0.013121  -0.025742   0.105439   0.111442
     16       0.571245  -0.016613  -0.008570   0.001944  -0.398284  -0.410933
     17      -0.352655   0.000349   0.006981  -0.001641  -0.577641  -0.560467
     18       0.213905  -0.023370   0.013025   0.025780  -0.104569   0.112333
     19      -0.345320   0.014608   0.004400   0.000949  -0.614070   0.627511
     20      -0.575732   0.007966   0.010126   0.002355   0.327474  -0.311636
                 18         19         20    
      0      -0.000339   0.000000  -0.000284
      1       0.000007   0.000501  -0.000080
      2      -0.000027   0.000121   0.000331
      3       0.047581  -0.000012   0.007249
      4       0.002002   0.090232  -0.022172
      5      -0.008152   0.021915   0.091295
      6      -0.185677   0.000160  -0.323869
      7       0.115269   0.016997   0.186129
      8      -0.473823   0.004550  -0.765120
      9      -0.185825  -0.232237   0.121001
     10      -0.546814  -0.630624   0.331938
     11       0.171309   0.209281  -0.089545
     12      -0.185701   0.232214   0.121155
     13       0.406841  -0.464059  -0.254072
     14       0.403115  -0.475577  -0.232349
     15       0.000322   0.003943   0.002025
     16      -0.000574  -0.004938  -0.003281
     17      -0.001524  -0.007791  -0.006632
     18       0.000320  -0.003946   0.002022
     19       0.001198  -0.007953   0.005940
     20      -0.001092   0.004676  -0.004375


-----------
IR SPECTRUM
-----------

 Mode   freq       eps      Int      T**2         TX        TY        TZ
       cm**-1   L/(mol*cm) km/mol    a.u.
----------------------------------------------------------------------------
  6:    244.78   0.000457    2.31  0.000583  (-0.000029  0.023452  0.005751)
  7:    736.06   0.001491    7.54  0.000632  (-0.025133  0.000163 -0.000692)
  8:    757.36   0.000614    3.10  0.000253  (-0.000007  0.015454  0.003756)
  9:    803.07   0.000427    2.16  0.000166  ( 0.002411 -0.002992  0.012301)
 10:   1104.22   0.012211   61.71  0.003451  (-0.041500  0.009821 -0.040400)
 11:   1137.09   0.004682   23.66  0.001285  (-0.000007  0.034830  0.008471)
 12:   1247.25   0.005587   28.23  0.001398  (-0.026051 -0.006334  0.026060)
 13:   1488.35   0.000034    0.17  0.000007  ( 0.000300  0.000624 -0.002563)
 14:   1619.73   0.001013    5.12  0.000195  (-0.007857 -0.002700  0.011230)
 15:   1624.07   0.001359    6.87  0.000261  (-0.000003 -0.015702 -0.003807)
 16:   2577.74   0.032507  164.28  0.003935  (-0.000094  0.060910  0.015010)
 17:   2584.82   0.022966  116.06  0.002773  (-0.023545 -0.011377  0.045704)
 18:   3211.98   0.004788   24.20  0.000465  ( 0.021476  0.000477 -0.001938)
 19:   3284.14   0.003291   16.63  0.000313  (-0.000006  0.017183  0.004175)
 20:   3298.04   0.003499   17.68  0.000331  ( 0.004171 -0.004181  0.017211)

* The epsilon (eps) is given for a Dirac delta lineshape.
** The dipole moment derivative (T) already includes vibrational overlap.

The first frequency considered to be a vibration is 6
The total number of vibrations considered is 15


--------------------------
THERMOCHEMISTRY AT 298.15K
--------------------------

Temperature         ...   298.15 K
Pressure            ...     1.00 atm
Total Mass          ...    48.03 AMU
Quasi RRHO          ...     True
Cut-Off Frequency   ...     1.00 cm^-1

Throughout the following assumptions are being made:
  (1) The electronic state is orbitally nondegenerate
  (2) There are no thermally accessible electronically excited states
  (3) Hindered rotations indicated by low frequency modes are not
      treated as such but are treated as vibrations and this may
      cause some error
  (4) All equations used are the standard statistical mechanics
      equations for an ideal gas
  (5) All vibrations are strictly harmonic

freq.     244.78  E(vib)   ...       0.31 
freq.     736.06  E(vib)   ...       0.06 
freq.     757.36  E(vib)   ...       0.06 
freq.     803.07  E(vib)   ...       0.05 
freq.    1104.22  E(vib)   ...       0.02 
freq.    1137.09  E(vib)   ...       0.01 
freq.    1247.25  E(vib)   ...       0.01 
freq.    1488.35  E(vib)   ...       0.00 
freq.    1619.73  E(vib)   ...       0.00 
freq.    1624.07  E(vib)   ...       0.00 
freq.    2577.74  E(vib)   ...       0.00 
freq.    2584.82  E(vib)   ...       0.00 
freq.    3211.98  E(vib)   ...       0.00 
freq.    3284.14  E(vib)   ...       0.00 
freq.    3298.04  E(vib)   ...       0.00 

------------
INNER ENERGY
------------

The inner energy is: U= E(el) + E(ZPE) + E(vib) + E(rot) + E(trans)
    E(el)   - is the total energy from the electronic structure calculation
              = E(kin-el) + E(nuc-el) + E(el-el) + E(nuc-nuc)
    E(ZPE)  - the the zero temperature vibrational energy from the frequency calculation
    E(vib)  - the the finite temperature correction to E(ZPE) due to population
              of excited vibrational states
    E(rot)  - is the rotational thermal energy
    E(trans)- is the translational thermal energy

Summary of contributions to the inner energy U:
Electronic energy                ...   -381.48460669 Eh
Zero point energy                ...      0.05859153 Eh      36.77 kcal/mol
Thermal vibrational correction   ...      0.00083311 Eh       0.52 kcal/mol
Thermal rotational correction    ...      0.00141627 Eh       0.89 kcal/mol
Thermal translational correction ...      0.00141627 Eh       0.89 kcal/mol
-----------------------------------------------------------------------
Total thermal energy                   -381.42234951 Eh


Summary of corrections to the electronic energy:
(perhaps to be used in another calculation)
Total thermal correction                  0.00366565 Eh       2.30 kcal/mol
Non-thermal (ZPE) correction              0.05859153 Eh      36.77 kcal/mol
-----------------------------------------------------------------------
Total correction                          0.06225718 Eh      39.07 kcal/mol


--------
ENTHALPY
--------

The enthalpy is H = U + kB*T
                kB is Boltzmann's constant
Total thermal energy              ...   -381.42234951 Eh 
Thermal Enthalpy correction       ...      0.00094421 Eh       0.59 kcal/mol
-----------------------------------------------------------------------
Total Enthalpy                    ...   -381.42140530 Eh


Note: Only C1 symmetry has been detected, increase convergence thresholds 
      if your molecule has a higher symmetry. Symmetry factor of 1.0 is   
      used for the rotational entropy correction. 
 

Note: Rotational entropy computed according to Herzberg 
Infrared and Raman Spectra, Chapter V,1, Van Nostrand Reinhold, 1945 
Point Group:  C1, Symmetry Number:   1  
Rotational constants in cm-1:     2.455184     0.392684     0.387735 

Vibrational entropy computed according to the QRRHO of S. Grimme
Chem.Eur.J. 2012 18 9955 using a reference frequency of 100.0 cm-1


-------
ENTROPY
-------

The entropy contributions are T*S = T*(S(el)+S(vib)+S(rot)+S(trans))
     S(el)   - electronic entropy
     S(vib)  - vibrational entropy
     S(rot)  - rotational entropy
     S(trans)- translational entropy
The entropies will be listed as multiplied by the temperature to get
units of energy

Electronic entropy                ...      0.00000000 Eh      0.00 kcal/mol
Vibrational entropy               ...      0.00126630 Eh      0.79 kcal/mol
Rotational entropy                ...      0.00997534 Eh      6.26 kcal/mol
Translational entropy             ...      0.01783248 Eh     11.19 kcal/mol
-----------------------------------------------------------------------
Final entropy term                ...      0.02907412 Eh     18.24 kcal/mol

In case the symmetry of your molecule has not been determined correctly
or in case you have a reason to use a different symmetry number we print 
out the resulting rotational entropy values for sn=1,12:

 non-linear molecules -----------------------------------
|  sn= 1 | S(rot)=       0.00997534 Eh      6.26 kcal/mol|
|  sn= 2 | S(rot)=       0.00932088 Eh      5.85 kcal/mol|
|  sn= 3 | S(rot)=       0.00893805 Eh      5.61 kcal/mol|
|  sn= 4 | S(rot)=       0.00866643 Eh      5.44 kcal/mol|
|  sn= 5 | S(rot)=       0.00845574 Eh      5.31 kcal/mol|
|  sn= 6 | S(rot)=       0.00828359 Eh      5.20 kcal/mol|
|  sn= 7 | S(rot)=       0.00813805 Eh      5.11 kcal/mol|
|  sn= 8 | S(rot)=       0.00801197 Eh      5.03 kcal/mol|
|  sn= 9 | S(rot)=       0.00790076 Eh      4.96 kcal/mol|
|  sn=10 | S(rot)=       0.00780128 Eh      4.90 kcal/mol|
|  sn=11 | S(rot)=       0.00771129 Eh      4.84 kcal/mol|
|  sn=12 | S(rot)=       0.00762914 Eh      4.79 kcal/mol|
 linear molecules ---------------------------------------
|  Dinfh | S(rot)=       0.00622036 Eh      3.90 kcal/mol|
|  Cinfv | S(rot)=       0.00687481 Eh      4.31 kcal/mol|
 --------------------------------------------------------


-------------------
GIBBS FREE ENERGY
-------------------

The Gibbs free energy is G = H - T*S

Total enthalpy                    ...   -381.42140530 Eh 
Total entropy correction          ...     -0.02907412 Eh    -18.24 kcal/mol
-----------------------------------------------------------------------
Final Gibbs free energy         ...   -381.45047942 Eh

For completeness - the Gibbs free energy minus the electronic energy
G-E(el)                           ...      0.03412727 Eh     21.42 kcal/mol


Maximum memory used throughout the entire PROP-calculation: 24.4 MB

--------------------------------
SUGGESTED CITATIONS FOR THIS RUN
--------------------------------

Below you find a list of papers that are relevant to this ORCA run
We neither can nor want to force you to cite these papers, but we appreciate if you do
You receive ORCA, which is the product of decades of hard work by many enthusiastic individuals, for free
The only thing we kindly ask in return is that you cite our papers,
We deeply appreciate it, if you show your appreciation for ORCA by not just citing the generic ORCA reference.

Please note that relegating all ORCA citations to the supporting information does *not* help us.
SI sections are not indexed - citations you put there will not count into any citation statistics
But we need these citations in order to attract the funding resources that allow us to do what we are doing

Therefore, if you are a happy ORCA user, please consider citing a few of the papers listed below in the main body of your paper

In addition to the list printed below, the program has created the file system.bibtex that contains the list in bibtex format
You can import this file easily into all common literature databanks and citation aid programs


List of essential papers. We consider these as the minimum necessary citations

  1. Neese,F.
     Software update: the ORCA program system, version 5.0
     WIRES Comput. Molec. Sci., 2022 12(1)e1606
     doi.org/10.1002/wcms.1606

List of papers to cite with high priority. The work reported in these papers was absolutely
necessary for this run to complete.
Our perspective: the developers of density functionals and basis sets usually get cited in chemistry papers
Good! But without the algorithms to do something with them, the functionals or basis sets would not do anything.
Hence, in our opinion, the algorithm design and method developments papers are equally worthy of getting cited

  1. Bykov,D.; Petrenko,T.; Izsak,R.; Kossmann,S.; Becker,U.; Valeev,E.; Neese,F.
     Efficient implementation of the analytic second derivatives of Hartree-Fock and hybrid DFT energies: a detailed analysis of different approximations
     Molec. Phys., 2015 113 1961-1977
     doi.org/10.1080/00268976.2015.1025114
  2. Neese,F.
     The SHARK Integral Generation and Digestion System
     J. Comp. Chem., 2022  1-16
     doi.org/10.1002/jcc.26942

List of suggested additional citations. These are papers that are important in the 'surrounding' of 
of this run, or papers that preceded the highly important papers. If you like your results we are grateful for a citation.

  1. Neese,F.
     The ORCA program system
     WIRES Comput. Molec. Sci., 2012 2(1)73-78
     doi.org/10.1002/wcms.81
  2. Neese,F.
     Software update: the ORCA program system, version 4.0
     WIRES Comput. Molec. Sci., 2018 8(1)1-6
     doi.org/10.1002/wcms.1327
  3. Neese,F.; Wennmohs,F.; Becker,U.; Riplinger,C.
     The ORCA quantum chemistry program package
     J. Chem. Phys., 2020 152 Art. No. L224108
     doi.org/10.1063/5.0004608

List of optional additional citations

  1. Neese,F.
     Approximate second-order SCF convergence for spin unrestricted wavefunctions
     Chem. Phys. Lett., 2000 325(1-3)93-98
     doi.org/10.1016/s0009-2614(00)00662-x

Timings for individual modules:

Sum of individual times          ...        5.975 sec (=   0.100 min)
Startup calculation              ...        0.732 sec (=   0.012 min)  12.3 %
SCF iterations                   ...        1.842 sec (=   0.031 min)  30.8 %
Property integrals               ...        0.519 sec (=   0.009 min)   8.7 %
SCF Response                     ...        0.640 sec (=   0.011 min)  10.7 %
Property calculations            ...        0.977 sec (=   0.016 min)  16.3 %
SCF Gradient evaluation          ...        0.990 sec (=   0.017 min)  16.6 %
Geometry relaxation              ...        0.008 sec (=   0.000 min)   0.1 %
Orbital/Density plot generation  ...        0.268 sec (=   0.004 min)   4.5 %
                             ****ORCA TERMINATED NORMALLY****
TOTAL RUN TIME: 0 days 0 hours 0 minutes 6 seconds 255 msec
